
     Program PWSCF v.7.3 starts on 25Sep2024 at 23:26:10 

     This program is part of the open-source Quantum ESPRESSO suite
     for quantum simulation of materials; please cite
         "P. Giannozzi et al., J. Phys.:Condens. Matter 21 395502 (2009);
         "P. Giannozzi et al., J. Phys.:Condens. Matter 29 465901 (2017);
         "P. Giannozzi et al., J. Chem. Phys. 152 154105 (2020);
          URL http://www.quantum-espresso.org", 
     in publications or presentations arising from this work. More details at
     http://www.quantum-espresso.org/quote

     Parallel version (MPI), running on    32 processors

     MPI processes distributed on     1 nodes
     245436 MiB available memory on the printing compute node when the environment starts
 
     Waiting for input...
     Reading input from standard input

     Current dimensions of program PWSCF are:
     Max number of different atomic species (ntypx) = 10
     Max number of k-points (npk) =  40000
     Max angular momentum in pseudopotentials (lmaxx) =  4
     file Cd.pbe-n-kjpaw_psl.1.0.0.UPF: wavefunction(s)  5S 4D renormalized
     file Te.pbe-n-kjpaw_psl.1.0.0.UPF: wavefunction(s)  5S 5P renormalized

     Atomic positions and unit cell read from directory:
     ./out/qe.save/
 
     Found identity + (  0.0000 -0.5000 -0.5000) symmetry
     This is a supercell, fractional translations are disabled
     Message from routine setup:
     using ibrav=0 with symmetry is DISCOURAGED, use correct ibrav instead
 
     R & G space division:  proc/nbgrp/npool/nimage =      32
     Subspace diagonalization in iterative solution of the eigenvalue problem:
     a serial algorithm will be used

 
     Parallelization info
     --------------------
     sticks:   dense  smooth     PW     G-vecs:    dense   smooth      PW
     Min         227      91     25                14601     3695     541
     Max         228      92     26                14606     3698     544
     Sum        7289    2917    805               467329   118265   17365
 
     Using Slab Decomposition
 


     bravais-lattice index     =            0
     lattice parameter (alat)  =      12.3477  a.u.
     unit-cell volume          =    1882.6041 (a.u.)^3
     number of atoms/cell      =            8
     number of atomic types    =            2
     number of electrons       =        72.00
     number of Kohn-Sham states=           43
     kinetic-energy cutoff     =      60.0000  Ry
     charge density cutoff     =     600.0000  Ry
     Exchange-correlation= SLA  PW   PBX  PBC
                           (   1   4   3   4   0   0   0)

     celldm(1)=  12.347708  celldm(2)=   0.000000  celldm(3)=   0.000000
     celldm(4)=   0.000000  celldm(5)=   0.000000  celldm(6)=   0.000000

     crystal axes: (cart. coord. in units of alat)
               a(1) = (   1.000000   0.000000   0.000000 )  
               a(2) = (   0.000000   1.000000   0.000000 )  
               a(3) = (   0.000000   0.000000   1.000000 )  

     reciprocal axes: (cart. coord. in units 2 pi/alat)
               b(1) = (  1.000000  0.000000  0.000000 )  
               b(2) = (  0.000000  1.000000  0.000000 )  
               b(3) = (  0.000000  0.000000  1.000000 )  


     PseudoPot. # 1 for Cd read from file:
     /opt/ohpc/pub/apps/pslibrary.1.0.0/pbe/PSEUDOPOTENTIALS/Cd.pbe-n-kjpaw_psl.1.0.0.UPF
     MD5 check sum: 2354daa030514246e553ccadb369292c
     Pseudo is Projector augmented-wave + core cor, Zval = 12.0
     Generated using 'atomic' code by A. Dal Corso  v.7.3
     Shape of augmentation charge: PSQ
     Using radial grid of 1239 points,  6 beta functions with: 
                l(1) =   0
                l(2) =   0
                l(3) =   1
                l(4) =   1
                l(5) =   2
                l(6) =   2
     Q(r) pseudized with 0 coefficients 


     PseudoPot. # 2 for Te read from file:
     /opt/ohpc/pub/apps/pslibrary.1.0.0/pbe/PSEUDOPOTENTIALS/Te.pbe-n-kjpaw_psl.1.0.0.UPF
     MD5 check sum: 27e2e91dd7d4317cbbbfc602cf87f408
     Pseudo is Projector augmented-wave + core cor, Zval =  6.0
     Generated using 'atomic' code by A. Dal Corso  v.7.3
     Shape of augmentation charge: PSQ
     Using radial grid of 1245 points,  6 beta functions with: 
                l(1) =   0
                l(2) =   0
                l(3) =   1
                l(4) =   1
                l(5) =   2
                l(6) =   2
     Q(r) pseudized with 0 coefficients 


     atomic species   valence    mass     pseudopotential
     Cd               12.00   112.41100     Cd( 1.00)
     Te                6.00   127.60000     Te( 1.00)

     24 Sym. Ops. (no inversion) found



   Cartesian axes

     site n.     atom                  positions (alat units)
         1        Cd     tau(   1) = (   0.0000000   0.0000000   0.0000000  )
         2        Cd     tau(   2) = (   0.0000000   0.5000000   0.5000000  )
         3        Cd     tau(   3) = (   0.5000000   0.0000000   0.5000000  )
         4        Cd     tau(   4) = (   0.5000000   0.5000000   0.0000000  )
         5        Te     tau(   5) = (   0.2499999   0.2499999   0.2499999  )
         6        Te     tau(   6) = (   0.7500001   0.7500001   0.2499999  )
         7        Te     tau(   7) = (   0.7500001   0.2499999   0.7500001  )
         8        Te     tau(   8) = (   0.2499999   0.7500001   0.7500001  )

     number of k points=    35 (tetrahedron method)
                       cart. coord. in units 2pi/alat
        k(    1) = (   0.0000000   0.0000000   0.0000000), wk =   0.0039062
        k(    2) = (   0.0000000   0.0000000   0.1250000), wk =   0.0234375
        k(    3) = (   0.0000000   0.0000000   0.2500000), wk =   0.0234375
        k(    4) = (   0.0000000   0.0000000   0.3750000), wk =   0.0234375
        k(    5) = (   0.0000000   0.0000000  -0.5000000), wk =   0.0117188
        k(    6) = (   0.0000000   0.1250000   0.1250000), wk =   0.0468750
        k(    7) = (   0.0000000   0.1250000   0.2500000), wk =   0.0937500
        k(    8) = (   0.0000000   0.1250000   0.3750000), wk =   0.0937500
        k(    9) = (   0.0000000   0.1250000  -0.5000000), wk =   0.0468750
        k(   10) = (   0.0000000   0.2500000   0.2500000), wk =   0.0468750
        k(   11) = (   0.0000000   0.2500000   0.3750000), wk =   0.0937500
        k(   12) = (   0.0000000   0.2500000  -0.5000000), wk =   0.0468750
        k(   13) = (   0.0000000   0.3750000   0.3750000), wk =   0.0468750
        k(   14) = (   0.0000000   0.3750000  -0.5000000), wk =   0.0468750
        k(   15) = (   0.0000000  -0.5000000  -0.5000000), wk =   0.0117188
        k(   16) = (   0.1250000   0.1250000   0.1250000), wk =   0.0312500
        k(   17) = (   0.1250000   0.1250000   0.2500000), wk =   0.0937500
        k(   18) = (   0.1250000   0.1250000   0.3750000), wk =   0.0937500
        k(   19) = (   0.1250000   0.1250000  -0.5000000), wk =   0.0468750
        k(   20) = (   0.1250000   0.2500000   0.2500000), wk =   0.0937500
        k(   21) = (   0.1250000   0.2500000   0.3750000), wk =   0.1875000
        k(   22) = (   0.1250000   0.2500000  -0.5000000), wk =   0.0937500
        k(   23) = (   0.1250000   0.3750000   0.3750000), wk =   0.0937500
        k(   24) = (   0.1250000   0.3750000  -0.5000000), wk =   0.0937500
        k(   25) = (   0.1250000  -0.5000000  -0.5000000), wk =   0.0234375
        k(   26) = (   0.2500000   0.2500000   0.2500000), wk =   0.0312500
        k(   27) = (   0.2500000   0.2500000   0.3750000), wk =   0.0937500
        k(   28) = (   0.2500000   0.2500000  -0.5000000), wk =   0.0468750
        k(   29) = (   0.2500000   0.3750000   0.3750000), wk =   0.0937500
        k(   30) = (   0.2500000   0.3750000  -0.5000000), wk =   0.0937500
        k(   31) = (   0.2500000  -0.5000000  -0.5000000), wk =   0.0234375
        k(   32) = (   0.3750000   0.3750000   0.3750000), wk =   0.0312500
        k(   33) = (   0.3750000   0.3750000  -0.5000000), wk =   0.0468750
        k(   34) = (   0.3750000  -0.5000000  -0.5000000), wk =   0.0234375
        k(   35) = (  -0.5000000  -0.5000000  -0.5000000), wk =   0.0039062

     Dense  grid:   467329 G-vectors     FFT dimensions: ( 100, 100, 100)

     Smooth grid:   118265 G-vectors     FFT dimensions: (  64,  64,  64)

     Estimated max dynamical RAM per process >      52.67 MB

     Estimated total dynamical RAM >       1.65 GB

     The potential is recalculated from file :
     ./out/qe.save/charge-density

     Starting wfcs are   52 randomized atomic wfcs
     Checking if some PAW data can be deallocated... 

     Band Structure Calculation
     Davidson diagonalization with overlap
     c_bands:  1 eigenvalues not converged
     c_bands:  3 eigenvalues not converged
     c_bands:  1 eigenvalues not converged
     c_bands:  1 eigenvalues not converged
     c_bands:  3 eigenvalues not converged

     ethr =  1.39E-10,  avg # of iterations = 76.8

     total cpu time spent up to now is       14.1 secs

     End of band structure calculation

          k = 0.0000 0.0000 0.0000 ( 14771 PWs)   bands (ev):

    -6.2051  -5.7142  -5.7142  -5.7142  -3.3363  -3.3363  -3.3363  -3.1877
    -3.1866  -3.1866  -3.1831  -3.1831  -3.1831  -3.1816  -3.1816  -3.1816
    -3.0915  -3.0915  -3.0616  -3.0605  -3.0605  -2.6316  -2.6316  -2.6316
     0.6437   0.6437   0.6444   3.0509   3.0509   3.0509   3.0511   3.0511
     3.0511   4.8363   4.8363   4.8363   5.5324   7.4976   7.4976   7.4976
     7.5081   7.5081   7.5082

          k = 0.0000 0.0000 0.1250 ( 14783 PWs)   bands (ev):

    -6.1860  -5.7318  -5.7144  -5.7144  -3.3310  -3.3310  -3.3252  -3.1982
    -3.1979  -3.1894  -3.1894  -3.1880  -3.1880  -3.1845  -3.1678  -3.1673
    -3.0933  -3.0904  -3.0639  -3.0630  -3.0619  -2.6833  -2.6201  -2.6201
     0.6593   0.6597   0.7695   2.9818   2.9820   3.0001   3.0001   3.1024
     3.1024   4.3194   4.7373   4.7373   6.0620   7.4518   7.6488   7.6770
     7.6771   7.6792   7.6792

          k = 0.0000 0.0000 0.2500 ( 14774 PWs)   bands (ev):

    -6.1315  -5.7826  -5.7149  -5.7149  -3.3157  -3.3157  -3.2910  -3.2074
    -3.2072  -3.2072  -3.2070  -3.2025  -3.2025  -3.1782  -3.1483  -3.1481
    -3.0974  -3.0871  -3.0711  -3.0702  -3.0653  -2.8094  -2.5930  -2.5930
     0.6993   0.6998   1.1141   2.8219   2.8220   2.8846   2.8846   3.2531
     3.2531   3.5918   4.4799   4.4799   6.8038   7.5030   7.8591   8.1252
     8.1253   8.1838   8.1838

          k = 0.0000 0.0000 0.3750 ( 14750 PWs)   bands (ev):

    -6.0501  -5.8606  -5.7155  -5.7155  -3.2922  -3.2922  -3.2349  -3.2335
    -3.2335  -3.2156  -3.2156  -3.2128  -3.2123  -3.1722  -3.1292  -3.1291
    -3.0976  -3.0825  -3.0817  -3.0810  -3.0703  -2.9533  -2.5668  -2.5668
     0.7435   0.7440   1.6139   2.6687   2.6688   2.7777   2.7777   2.8813
     3.4917   3.4917   4.1440   4.1440   7.4398   7.6407   8.0599   8.4623
     8.6902   8.6904   8.9161

          k = 0.0000 0.0000-0.5000 ( 14718 PWs)   bands (ev):

    -5.9546  -5.9546  -5.7157  -5.7157  -3.2641  -3.2641  -3.2628  -3.2628
    -3.2207  -3.2207  -3.2145  -3.2140  -3.1823  -3.1821  -3.1187  -3.1182
    -3.0900  -3.0886  -3.0769  -3.0755  -3.0628  -3.0627  -2.5561  -2.5561
     0.7632   0.7637   2.2146   2.2147   2.6065   2.6065   2.7356   2.7356
     3.7987   3.7987   3.7989   3.7989   7.7407   7.7411   8.1902   8.1904
     9.0076   9.0078   9.5315

          k = 0.0000 0.1250 0.1250 ( 14773 PWs)   bands (ev):

    -6.1676  -5.7313  -5.7313  -5.7152  -3.3305  -3.3262  -3.3087  -3.2067
    -3.2012  -3.2011  -3.1956  -3.1943  -3.1884  -3.1687  -3.1682  -3.1617
    -3.0936  -3.0906  -3.0658  -3.0644  -3.0639  -2.6696  -2.6696  -2.6110
     0.6739   0.7744   0.7748   2.7746   3.0202   3.0202   3.0715   3.0717
     3.1311   3.9393   4.6351   4.7943   6.2951   7.5694   7.6370   7.6371
     7.8091   7.8091   8.0908

          k = 0.0000 0.1250 0.2500 ( 14784 PWs)   bands (ev):

    -6.1151  -5.7801  -5.7298  -5.7175  -3.3189  -3.3123  -3.2695  -3.2172
    -3.2153  -3.2121  -3.2110  -3.2086  -3.1990  -3.1666  -3.1483  -3.1450
    -3.0970  -3.0876  -3.0724  -3.0707  -3.0668  -2.7918  -2.6362  -2.5908
     0.7109   0.7860   1.0904   2.5716   2.8240   3.0094   3.1478   3.1567
     3.2564   3.3250   4.3716   4.6118   6.8463   7.6896   7.8042   8.0004
     8.1186   8.2636   8.7043

          k = 0.0000 0.1250 0.3750 ( 14784 PWs)   bands (ev):

    -6.0368  -5.8548  -5.7274  -5.7208  -3.2974  -3.2907  -3.2406  -3.2362
    -3.2246  -3.2213  -3.2161  -3.2108  -3.2103  -3.1612  -3.1288  -3.1268
    -3.0960  -3.0826  -3.0821  -3.0806  -3.0713  -2.9346  -2.5999  -2.5750
     0.7541   0.7932   1.5474   2.4582   2.6136   2.6949   2.9744   3.0786
     3.3855   3.5362   4.0317   4.2679   7.4347   7.8050   8.1843   8.3085
     8.6468   8.6602   8.9761

          k = 0.0000 0.1250-0.5000 ( 14756 PWs)   bands (ev):

    -5.9451  -5.9451  -5.7243  -5.7243  -3.2700  -3.2697  -3.2643  -3.2637
    -3.2269  -3.2269  -3.2165  -3.2160  -3.1653  -3.1647  -3.1177  -3.1171
    -3.0894  -3.0881  -3.0780  -3.0765  -3.0508  -3.0505  -2.5769  -2.5768
     0.7841   0.7847   2.0936   2.0937   2.4745   2.4745   3.0015   3.0015
     3.6873   3.6873   3.8868   3.8868   7.8056   7.8061   8.3495   8.3497
     8.8030   8.8032   9.6327

          k = 0.0000 0.2500 0.2500 ( 14802 PWs)   bands (ev):

    -6.0684  -5.7727  -5.7727  -5.7249  -3.3142  -3.3022  -3.2285  -3.2274
    -3.2261  -3.2222  -3.2219  -3.2198  -3.2057  -3.1465  -3.1459  -3.1337
    -3.0979  -3.0857  -3.0771  -3.0721  -3.0715  -2.7462  -2.7460  -2.5900
     0.7424   1.0259   1.0263   2.3868   2.8276   2.9230   2.9231   3.2774
     3.2777   3.3577   4.0971   4.6566   7.0547   7.7463   8.1445   8.1447
     8.4212   8.4213   9.3273

          k = 0.0000 0.2500 0.3750 ( 14784 PWs)   bands (ev):

    -5.9990  -5.8385  -5.7618  -5.7359  -3.2988  -3.2859  -3.2504  -3.2419
    -3.2361  -3.2352  -3.2280  -3.2177  -3.1562  -3.1401  -3.1263  -3.1192
    -3.0957  -3.0847  -3.0802  -3.0756  -3.0745  -2.8822  -2.6885  -2.6026
     0.7904   0.9402   1.3807   2.3062   2.3427   2.6568   3.1259   3.3300
     3.4318   3.6424   3.7521   4.4336   7.4561   8.0017   8.1230   8.5371
     8.6120   9.1356   9.1445

          k = 0.0000 0.2500-0.5000 ( 14756 PWs)   bands (ev):

    -5.9180  -5.9180  -5.7489  -5.7489  -3.2761  -3.2761  -3.2650  -3.2646
    -3.2387  -3.2386  -3.2267  -3.2262  -3.1350  -3.1338  -3.1138  -3.1131
    -3.0889  -3.0876  -3.0823  -3.0809  -3.0077  -3.0072  -2.6365  -2.6364
     0.8564   0.8569   1.8155   1.8156   2.4437   2.4437   3.3989   3.3989
     3.4124   3.4124   4.0542   4.0542   7.8830   7.8834   8.4262   8.4263
     8.8506   8.8509   9.8085

          k = 0.0000 0.3750 0.3750 ( 14766 PWs)   bands (ev):

    -5.9430  -5.8144  -5.8144  -5.7589  -3.2899  -3.2771  -3.2540  -3.2528
    -3.2463  -3.2461  -3.2447  -3.2315  -3.1204  -3.1200  -3.1089  -3.1079
    -3.1006  -3.0895  -3.0822  -3.0819  -3.0301  -2.8076  -2.8074  -2.6539
     0.8671   1.1793   1.1796   1.8861   2.3811   2.8207   2.8208   3.4092
     3.6904   3.7505   3.7507   4.4077   7.5986   7.9383   8.2583   8.2587
     9.3628   9.3630   9.7138

          k = 0.0000 0.3750-0.5000 ( 14786 PWs)   bands (ev):

    -5.8780  -5.8780  -5.7864  -5.7864  -3.2732  -3.2730  -3.2639  -3.2635
    -3.2504  -3.2503  -3.2437  -3.2431  -3.1122  -3.1109  -3.1068  -3.1058
    -3.0911  -3.0897  -3.0893  -3.0879  -2.9300  -2.9295  -2.7261  -2.7259
     0.9980   0.9983   1.5004   1.5006   2.5538   2.5538   3.0824   3.0824
     3.7899   3.7900   4.1482   4.1483   7.8957   7.8959   8.1019   8.1020
     9.6163   9.6166   9.9675

          k = 0.0000-0.5000-0.5000 ( 14836 PWs)   bands (ev):

    -5.8317  -5.8317  -5.8317  -5.8317  -3.2617  -3.2616  -3.2608  -3.2608
    -3.2592  -3.2588  -3.2588  -3.2579  -3.0988  -3.0987  -3.0987  -3.0976
    -3.0975  -3.0975  -3.0961  -3.0952  -2.8305  -2.8298  -2.8298  -2.8297
     1.2165   1.2165   1.2166   1.2171   2.7789   2.7789   2.7789   2.7789
     4.0654   4.0655   4.0657   4.0657   7.9283   7.9283   7.9287   7.9289
    10.0484  10.0484  10.0485

          k = 0.1250 0.1250 0.1250 ( 14813 PWs)   bands (ev):

    -6.1498  -5.7314  -5.7314  -5.7314  -3.3259  -3.3259  -3.2920  -3.2108
    -3.2108  -3.2102  -3.1956  -3.1945  -3.1945  -3.1620  -3.1615  -3.1615
    -3.0923  -3.0923  -3.0669  -3.0658  -3.0658  -2.6582  -2.6581  -2.6581
     0.7766   0.7766   0.7772   2.8431   2.8431   2.8432   3.1800   3.1801
     3.1801   3.6288   4.7055   4.7055   6.4188   7.6024   7.6024   7.6025
     8.1422   8.1422   8.1423

          k = 0.1250 0.1250 0.2500 ( 14777 PWs)   bands (ev):

    -6.0994  -5.7781  -5.7317  -5.7317  -3.3169  -3.3123  -3.2497  -3.2242
    -3.2217  -3.2212  -3.2126  -3.2052  -3.2048  -3.1589  -3.1446  -3.1444
    -3.0960  -3.0886  -3.0725  -3.0716  -3.0681  -2.7759  -2.6311  -2.6310
     0.7805   0.7810   1.0595   2.6529   2.6530   3.0436   3.0773   3.2040
     3.2040   3.3233   4.4718   4.5582   6.8226   7.6942   7.8356   7.8356
     8.2750   8.7369   8.7370

          k = 0.1250 0.1250 0.3750 ( 14765 PWs)   bands (ev):

    -6.0241  -5.8497  -5.7320  -5.7320  -3.2984  -3.2913  -3.2469  -3.2376
    -3.2293  -3.2290  -3.2156  -3.2151  -3.1889  -3.1527  -3.1262  -3.1259
    -3.0933  -3.0833  -3.0817  -3.0807  -3.0719  -2.9167  -2.6047  -2.6046
     0.7824   0.7829   1.4689   2.5044   2.5286   2.5286   3.1639   3.1639
     3.3591   3.5495   4.1618   4.1888   7.3512   7.7977   8.3129   8.3130
     8.4278   8.8670   9.3488

          k = 0.1250 0.1250-0.5000 ( 14742 PWs)   bands (ev):

    -5.9362  -5.9362  -5.7322  -5.7321  -3.2740  -3.2730  -3.2659  -3.2646
    -3.2322  -3.2320  -3.2196  -3.2190  -3.1520  -3.1511  -3.1163  -3.1156
    -3.0887  -3.0873  -3.0779  -3.0765  -3.0384  -3.0380  -2.5939  -2.5938
     0.7825   0.7829   1.9602   1.9603   2.4875   2.4876   3.1380   3.1381
     3.7581   3.7583   3.8390   3.8392   7.7369   7.7373   8.5906   8.5909
     8.6708   8.6709   9.5489

          k = 0.1250 0.2500 0.2500 ( 14772 PWs)   bands (ev):

    -6.0547  -5.7727  -5.7726  -5.7372  -3.3113  -3.3038  -3.2352  -3.2344
    -3.2326  -3.2214  -3.2207  -3.2118  -3.1996  -3.1416  -3.1411  -3.1325
    -3.0961  -3.0873  -3.0763  -3.0727  -3.0721  -2.7352  -2.7351  -2.6221
     0.7697   0.9784   0.9787   2.5093   2.6051   2.8793   2.8793   3.3724
     3.3726   3.3989   4.2622   4.5951   6.9188   7.7690   7.9041   7.9042
     8.8197   8.8199   9.3295

          k = 0.1250 0.2500 0.3750 ( 14771 PWs)   bands (ev):

    -5.9884  -5.8353  -5.7645  -5.7453  -3.2978  -3.2878  -3.2551  -3.2432
    -3.2412  -3.2401  -3.2291  -3.2230  -3.1377  -3.1345  -3.1228  -3.1178
    -3.0919  -3.0832  -3.0800  -3.0755  -3.0745  -2.8671  -2.6856  -2.6231
     0.7697   0.8807   1.2804   2.1147   2.4861   2.7132   3.2025   3.4096
     3.4748   3.6507   3.9315   4.3802   7.2626   7.9051   7.9941   8.2645
     8.9265   9.3344   9.3744

          k = 0.1250 0.2500-0.5000 ( 14762 PWs)   bands (ev):

    -5.9111  -5.9111  -5.7549  -5.7549  -3.2781  -3.2775  -3.2672  -3.2662
    -3.2431  -3.2428  -3.2305  -3.2299  -3.1276  -3.1263  -3.1116  -3.1108
    -3.0877  -3.0864  -3.0808  -3.0794  -2.9938  -2.9931  -2.6444  -2.6443
     0.8040   0.8044   1.6650   1.6652   2.5681   2.5683   3.4561   3.4561
     3.5661   3.5662   4.0140   4.0141   7.6742   7.6746   8.3295   8.3296
     9.1001   9.1003   9.5666

          k = 0.1250 0.3750 0.3750 ( 14780 PWs)   bands (ev):

    -5.9355  -5.8141  -5.8141  -5.7654  -3.2896  -3.2795  -3.2580  -3.2569
    -3.2489  -3.2483  -3.2474  -3.2362  -3.1165  -3.1161  -3.1069  -3.0993
    -3.0983  -3.0875  -3.0812  -3.0809  -3.0196  -2.7975  -2.7973  -2.6626
     0.7962   1.0673   1.0676   1.7060   2.5642   2.9708   2.9708   3.6116
     3.7172   3.7668   3.7670   4.3809   7.3618   7.8918   8.0315   8.0318
     9.4166   9.4167   9.8307

          k = 0.1250 0.3750-0.5000 ( 14790 PWs)   bands (ev):

    -5.8741  -5.8741  -5.7895  -5.7895  -3.2749  -3.2745  -3.2665  -3.2658
    -3.2543  -3.2538  -3.2471  -3.2465  -3.1082  -3.1069  -3.1041  -3.1031
    -3.0893  -3.0880  -3.0870  -3.0857  -2.9165  -2.9159  -2.7240  -2.7238
     0.8949   0.8952   1.3467   1.3469   2.7398   2.7399   3.2778   3.2779
     3.8111   3.8112   4.1362   4.1362   7.6660   7.6662   7.9782   7.9783
     9.6552   9.6554   9.7118

          k = 0.1250-0.5000-0.5000 ( 14784 PWs)   bands (ev):

    -5.8313  -5.8313  -5.8313  -5.8313  -3.2642  -3.2641  -3.2634  -3.2634
    -3.2623  -3.2618  -3.2618  -3.2609  -3.0962  -3.0962  -3.0962  -3.0948
    -3.0948  -3.0948  -3.0936  -3.0924  -2.8209  -2.8202  -2.8202  -2.8201
     1.0784   1.0784   1.0784   1.0789   2.9866   2.9867   2.9867   2.9868
     4.0697   4.0698   4.0700   4.0700   7.7487   7.7487   7.7490   7.7493
     9.8529   9.8529   9.8530

          k = 0.2500 0.2500 0.2500 ( 14790 PWs)   bands (ev):

    -6.0159  -5.7724  -5.7724  -5.7724  -3.3026  -3.3026  -3.2451  -3.2451
    -3.2440  -3.2284  -3.2273  -3.2273  -3.1451  -3.1290  -3.1282  -3.1282
    -3.0914  -3.0914  -3.0757  -3.0747  -3.0747  -2.7090  -2.7087  -2.7087
     0.8679   0.8679   0.8685   2.1729   2.8414   2.8414   2.8416   3.5185
     3.5187   3.5187   4.4274   4.4274   6.7834   7.7971   7.7971   7.7972
     9.3212   9.3212   9.3216

          k = 0.2500 0.2500 0.3750 ( 14762 PWs)   bands (ev):

    -5.9584  -5.8264  -5.7722  -5.7722  -3.2945  -3.2885  -3.2620  -3.2512
    -3.2505  -3.2485  -3.2372  -3.2365  -3.1212  -3.1137  -3.1131  -3.1042
    -3.0853  -3.0809  -3.0800  -3.0757  -3.0557  -2.8262  -2.6826  -2.6824
     0.7631   0.7634   1.0613   1.7339   2.8432   2.8434   3.3067   3.6035
     3.6036   3.7057   4.1940   4.2552   6.9695   7.6983   7.9066   7.9068
     9.3300   9.5290   9.5292

          k = 0.2500 0.2500-0.5000 ( 14744 PWs)   bands (ev):

    -5.8917  -5.8917  -5.7721  -5.7721  -3.2804  -3.2796  -3.2705  -3.2693
    -3.2528  -3.2522  -3.2415  -3.2408  -3.1127  -3.1114  -3.1055  -3.1046
    -3.0857  -3.0844  -3.0801  -3.0788  -2.9489  -2.9483  -2.6717  -2.6715
     0.7211   0.7214   1.3539   1.3541   2.8508   2.8510   3.6256   3.6257
     3.8177   3.8178   3.9403   3.9406   7.3702   7.3705   8.0191   8.0192
     9.4700   9.4702   9.4819

          k = 0.2500 0.3750 0.3750 ( 14784 PWs)   bands (ev):

    -5.9142  -5.8134  -5.8133  -5.7840  -3.2879  -3.2832  -3.2650  -3.2642
    -3.2581  -3.2549  -3.2541  -3.2481  -3.1068  -3.1064  -3.1021  -3.0926
    -3.0879  -3.0833  -3.0798  -3.0794  -2.9787  -2.7727  -2.7724  -2.6921
     0.6875   0.8468   0.8471   1.3537   3.0005   3.2807   3.2808   3.7941
     3.8180   3.8182   3.9864   4.3037   6.9301   7.6227   7.6229   7.6893
     9.5311   9.5313   9.6254

          k = 0.2500 0.3750-0.5000 ( 14796 PWs)   bands (ev):

    -5.8632  -5.8632  -5.7985  -5.7984  -3.2780  -3.2774  -3.2717  -3.2706
    -3.2625  -3.2618  -3.2560  -3.2554  -3.0992  -3.0980  -3.0975  -3.0965
    -3.0858  -3.0844  -3.0832  -3.0819  -2.8778  -2.8773  -2.7234  -2.7231
     0.7118   0.7121   1.0469   1.0472   3.1583   3.1585   3.6776   3.6777
     3.8729   3.8729   4.0983   4.0984   7.2171   7.2174   7.6182   7.6184
     9.6124   9.6125   9.7603

          k = 0.2500-0.5000-0.5000 ( 14804 PWs)   bands (ev):

    -5.8304  -5.8303  -5.8303  -5.8303  -3.2700  -3.2697  -3.2695  -3.2695
    -3.2690  -3.2681  -3.2681  -3.2677  -3.0904  -3.0903  -3.0903  -3.0891
    -3.0891  -3.0891  -3.0878  -3.0867  -2.7969  -2.7962  -2.7962  -2.7961
     0.8213   0.8213   0.8213   0.8218   3.4372   3.4373   3.4373   3.4375
     4.0802   4.0802   4.0804   4.0804   7.3087   7.3087   7.3088   7.3092
     9.8227   9.8227   9.8228

          k = 0.3750 0.3750 0.3750 ( 14790 PWs)   bands (ev):

    -5.8831  -5.8126  -5.8126  -5.8126  -3.2833  -3.2833  -3.2696  -3.2696
    -3.2683  -3.2630  -3.2619  -3.2619  -3.0963  -3.0957  -3.0957  -3.0860
    -3.0860  -3.0812  -3.0800  -3.0800  -2.9073  -2.7474  -2.7469  -2.7469
     0.6665   0.6665   0.6669   1.0192   3.5262   3.5262   3.5265   3.9102
     3.9103   3.9103   4.1869   4.1869   6.6927   7.2915   7.2915   7.2918
     9.6704   9.6704   9.6707

          k = 0.3750 0.3750-0.5000 ( 14778 PWs)   bands (ev):

    -5.8473  -5.8473  -5.8123  -5.8123  -3.2788  -3.2781  -3.2752  -3.2742
    -3.2704  -3.2695  -3.2665  -3.2659  -3.0904  -3.0901  -3.0893  -3.0892
    -3.0835  -3.0820  -3.0820  -3.0806  -2.8238  -2.8233  -2.7364  -2.7361
     0.5993   0.5996   0.7786   0.7789   3.6018   3.6020   3.9736   3.9736
     3.9925   3.9925   4.0483   4.0485   6.8657   6.8660   7.1637   7.1639
     9.7505   9.7507   9.8936

          k = 0.3750-0.5000-0.5000 ( 14796 PWs)   bands (ev):

    -5.8294  -5.8294  -5.8294  -5.8294  -3.2753  -3.2752  -3.2752  -3.2750
    -3.2748  -3.2736  -3.2736  -3.2736  -3.0850  -3.0848  -3.0848  -3.0844
    -3.0844  -3.0843  -3.0824  -3.0820  -2.7718  -2.7711  -2.7711  -2.7710
     0.6192   0.6192   0.6192   0.6197   3.8889   3.8891   3.8891   3.8893
     4.0907   4.0908   4.0910   4.0910   6.8425   6.8425   6.8426   6.8430
     9.9558   9.9558   9.9559

          k =-0.5000-0.5000-0.5000 ( 14832 PWs)   bands (ev):

    -5.8290  -5.8290  -5.8290  -5.8290  -3.2774  -3.2774  -3.2774  -3.2771
    -3.2771  -3.2758  -3.2758  -3.2758  -3.0828  -3.0828  -3.0828  -3.0826
    -3.0826  -3.0826  -3.0803  -3.0803  -2.7611  -2.7603  -2.7603  -2.7603
     0.5450   0.5450   0.5450   0.5455   4.0952   4.0952   4.0952   4.0952
     4.0952   4.0955   4.0955   4.0955   6.6284   6.6284   6.6284   6.6290
    10.0462  10.0462  10.0462

     the Fermi energy is     5.4779 ev
     (compare with:     5.0199 eV, computed in scf)

     Writing all to output data dir ./out/qe.save/ :
     XML data file, pseudopotentials, collected wavefunctions
 
     init_run     :      0.30s CPU      0.38s WALL (       1 calls)
     electrons    :     13.12s CPU     13.31s WALL (       1 calls)

     Called by init_run:
     wfcinit      :      0.00s CPU      0.01s WALL (       1 calls)
     potinit      :      0.05s CPU      0.06s WALL (       1 calls)
     hinit0       :      0.04s CPU      0.08s WALL (       1 calls)

     Called by electrons:
     c_bands      :     13.10s CPU     13.30s WALL (       1 calls)
     v_of_rho     :      0.01s CPU      0.01s WALL (       1 calls)
     newd         :      0.05s CPU      0.05s WALL (       1 calls)
     PAW_pot      :      0.04s CPU      0.04s WALL (       1 calls)

     Called by c_bands:
     init_us_2    :      0.00s CPU      0.01s WALL (      35 calls)
     init_us_2:cp :      0.00s CPU      0.01s WALL (      35 calls)
     cegterg      :     12.69s CPU     12.86s WALL (     152 calls)

     Called by *egterg:
     cdiaghg      :      3.26s CPU      3.28s WALL (    2723 calls)
     h_psi        :      7.69s CPU      7.85s WALL (    2875 calls)
     s_psi        :      0.36s CPU      0.37s WALL (    2875 calls)
     g_psi        :      0.04s CPU      0.04s WALL (    2688 calls)

     Called by h_psi:
     h_psi:calbec :      0.61s CPU      0.62s WALL (    2875 calls)
     vloc_psi     :      6.66s CPU      6.79s WALL (    2875 calls)
     add_vuspsi   :      0.39s CPU      0.40s WALL (    2875 calls)

     General routines
     calbec       :      0.60s CPU      0.62s WALL (    2875 calls)
     fft          :      0.01s CPU      0.04s WALL (      13 calls)
     ffts         :      0.00s CPU      0.00s WALL (       1 calls)
     fftw         :      5.54s CPU      5.65s WALL (  106878 calls)
     interpolate  :      0.00s CPU      0.00s WALL (       1 calls)
     davcio       :      0.01s CPU      0.01s WALL (      70 calls)
 
     Parallel routines
 
     PWSCF        :     13.75s CPU     16.02s WALL

 
   This run was terminated on:  23:26:26  25Sep2024            

=------------------------------------------------------------------------------=
   JOB DONE.
=------------------------------------------------------------------------------=
