
     Program PROJWFC v.7.3 starts on 26Sep2024 at  0: 2:45 

     This program is part of the open-source Quantum ESPRESSO suite
     for quantum simulation of materials; please cite
         "P. Giannozzi et al., J. Phys.:Condens. Matter 21 395502 (2009);
         "P. Giannozzi et al., J. Phys.:Condens. Matter 29 465901 (2017);
         "P. Giannozzi et al., J. Chem. Phys. 152 154105 (2020);
          URL http://www.quantum-espresso.org", 
     in publications or presentations arising from this work. More details at
     http://www.quantum-espresso.org/quote

     Parallel version (MPI), running on     1 processors

     MPI processes distributed on     1 nodes
     7377 MiB available memory on the printing compute node when the environment starts
 

     Reading xml data from directory:

     ./out/qe.save/
     file Cd.pbe-n-kjpaw_psl.1.0.0.UPF: wavefunction(s)  5S 4D renormalized
     file Te.pbe-n-kjpaw_psl.1.0.0.UPF: wavefunction(s)  5S 5P renormalized

     IMPORTANT: XC functional enforced from input :
     Exchange-correlation= PBE
                           (   1   4   3   4   0   0   0)
     Any further DFT definition will be discarded
     Please, verify this is what you really want

 
     G-vector sticks info
     --------------------
     sticks:   dense  smooth     PW     G-vecs:    dense   smooth      PW
     Sum        7289    2917    805               467329   118265   17365
 
     Using Slab Decomposition
 

     Gaussian broadening (read from input): ngauss,degauss=   0    0.010000


     Calling projwave .... 
     Subspace diagonalization in iterative solution of the eigenvalue problem:
     a serial algorithm will be used

 
  Problem Sizes 
  natomwfc =           52
  nbnd     =           43
  nkstot   =           35
  npwx     =        14836
  nkb      =          144
 

     Atomic states used for projection
     (read from pseudopotential files):

     state #   1: atom   1 (Cd ), wfc  1 (l=0 m= 1)
     state #   2: atom   1 (Cd ), wfc  2 (l=1 m= 1)
     state #   3: atom   1 (Cd ), wfc  2 (l=1 m= 2)
     state #   4: atom   1 (Cd ), wfc  2 (l=1 m= 3)
     state #   5: atom   1 (Cd ), wfc  3 (l=2 m= 1)
     state #   6: atom   1 (Cd ), wfc  3 (l=2 m= 2)
     state #   7: atom   1 (Cd ), wfc  3 (l=2 m= 3)
     state #   8: atom   1 (Cd ), wfc  3 (l=2 m= 4)
     state #   9: atom   1 (Cd ), wfc  3 (l=2 m= 5)
     state #  10: atom   2 (Cd ), wfc  1 (l=0 m= 1)
     state #  11: atom   2 (Cd ), wfc  2 (l=1 m= 1)
     state #  12: atom   2 (Cd ), wfc  2 (l=1 m= 2)
     state #  13: atom   2 (Cd ), wfc  2 (l=1 m= 3)
     state #  14: atom   2 (Cd ), wfc  3 (l=2 m= 1)
     state #  15: atom   2 (Cd ), wfc  3 (l=2 m= 2)
     state #  16: atom   2 (Cd ), wfc  3 (l=2 m= 3)
     state #  17: atom   2 (Cd ), wfc  3 (l=2 m= 4)
     state #  18: atom   2 (Cd ), wfc  3 (l=2 m= 5)
     state #  19: atom   3 (Cd ), wfc  1 (l=0 m= 1)
     state #  20: atom   3 (Cd ), wfc  2 (l=1 m= 1)
     state #  21: atom   3 (Cd ), wfc  2 (l=1 m= 2)
     state #  22: atom   3 (Cd ), wfc  2 (l=1 m= 3)
     state #  23: atom   3 (Cd ), wfc  3 (l=2 m= 1)
     state #  24: atom   3 (Cd ), wfc  3 (l=2 m= 2)
     state #  25: atom   3 (Cd ), wfc  3 (l=2 m= 3)
     state #  26: atom   3 (Cd ), wfc  3 (l=2 m= 4)
     state #  27: atom   3 (Cd ), wfc  3 (l=2 m= 5)
     state #  28: atom   4 (Cd ), wfc  1 (l=0 m= 1)
     state #  29: atom   4 (Cd ), wfc  2 (l=1 m= 1)
     state #  30: atom   4 (Cd ), wfc  2 (l=1 m= 2)
     state #  31: atom   4 (Cd ), wfc  2 (l=1 m= 3)
     state #  32: atom   4 (Cd ), wfc  3 (l=2 m= 1)
     state #  33: atom   4 (Cd ), wfc  3 (l=2 m= 2)
     state #  34: atom   4 (Cd ), wfc  3 (l=2 m= 3)
     state #  35: atom   4 (Cd ), wfc  3 (l=2 m= 4)
     state #  36: atom   4 (Cd ), wfc  3 (l=2 m= 5)
     state #  37: atom   5 (Te ), wfc  1 (l=0 m= 1)
     state #  38: atom   5 (Te ), wfc  2 (l=1 m= 1)
     state #  39: atom   5 (Te ), wfc  2 (l=1 m= 2)
     state #  40: atom   5 (Te ), wfc  2 (l=1 m= 3)
     state #  41: atom   6 (Te ), wfc  1 (l=0 m= 1)
     state #  42: atom   6 (Te ), wfc  2 (l=1 m= 1)
     state #  43: atom   6 (Te ), wfc  2 (l=1 m= 2)
     state #  44: atom   6 (Te ), wfc  2 (l=1 m= 3)
     state #  45: atom   7 (Te ), wfc  1 (l=0 m= 1)
     state #  46: atom   7 (Te ), wfc  2 (l=1 m= 1)
     state #  47: atom   7 (Te ), wfc  2 (l=1 m= 2)
     state #  48: atom   7 (Te ), wfc  2 (l=1 m= 3)
     state #  49: atom   8 (Te ), wfc  1 (l=0 m= 1)
     state #  50: atom   8 (Te ), wfc  2 (l=1 m= 1)
     state #  51: atom   8 (Te ), wfc  2 (l=1 m= 2)
     state #  52: atom   8 (Te ), wfc  2 (l=1 m= 3)

 k =   0.0000000000  0.0000000000  0.0000000000
==== e(   1) =    -6.20509 eV ==== 
     psi = 0.186*[#  37]+0.186*[#  41]+0.186*[#  45]+0.186*[#  49]+0.063*[#   1]
          +0.063*[#  10]+0.063*[#  19]+0.063*[#  28]
    |psi|^2 = 0.997
==== e(   2) =    -5.71419 eV ==== 
     psi = 0.175*[#  37]+0.175*[#  41]+0.175*[#  45]+0.175*[#  49]+0.013*[#   6]
          +0.013*[#   7]+0.013*[#   9]+0.013*[#  15]+0.013*[#  16]+0.013*[#  18]
          +0.013*[#  24]+0.013*[#  25]+0.013*[#  27]+0.013*[#  33]+0.013*[#  34]
          +0.013*[#  36]+0.012*[#   2]+0.012*[#   3]+0.012*[#   4]+0.012*[#  11]
          +0.012*[#  12]+0.012*[#  13]+0.012*[#  20]+0.012*[#  21]+0.012*[#  22]
          +0.012*[#  29]+0.012*[#  30]+0.012*[#  31]
    |psi|^2 = 0.999
==== e(   3) =    -5.71419 eV ==== 
     psi = 0.175*[#  37]+0.175*[#  41]+0.175*[#  45]+0.175*[#  49]+0.013*[#   6]
          +0.013*[#   7]+0.013*[#   9]+0.013*[#  15]+0.013*[#  16]+0.013*[#  18]
          +0.013*[#  24]+0.013*[#  25]+0.013*[#  27]+0.013*[#  33]+0.013*[#  34]
          +0.013*[#  36]+0.012*[#   2]+0.012*[#   3]+0.012*[#   4]+0.012*[#  11]
          +0.012*[#  12]+0.012*[#  13]+0.012*[#  20]+0.012*[#  21]+0.012*[#  22]
          +0.012*[#  29]+0.012*[#  30]+0.012*[#  31]
    |psi|^2 = 0.999
==== e(   4) =    -5.71419 eV ==== 
     psi = 0.175*[#  37]+0.175*[#  41]+0.175*[#  45]+0.175*[#  49]+0.013*[#   6]
          +0.013*[#   7]+0.013*[#   9]+0.013*[#  15]+0.013*[#  16]+0.013*[#  18]
          +0.013*[#  24]+0.013*[#  25]+0.013*[#  27]+0.013*[#  33]+0.013*[#  34]
          +0.013*[#  36]+0.012*[#   2]+0.012*[#   3]+0.012*[#   4]+0.012*[#  11]
          +0.012*[#  12]+0.012*[#  13]+0.012*[#  20]+0.012*[#  21]+0.012*[#  22]
          +0.012*[#  29]+0.012*[#  30]+0.012*[#  31]
    |psi|^2 = 0.999
==== e(   5) =    -3.33630 eV ==== 
     psi = 0.081*[#  16]+0.081*[#  24]+0.081*[#  36]+0.080*[#  15]+0.080*[#  18]
          +0.080*[#  25]+0.080*[#  27]+0.080*[#  33]+0.080*[#  34]+0.078*[#   6]
          +0.078*[#   7]+0.078*[#   9]+0.004*[#  38]+0.004*[#  39]+0.004*[#  40]
          +0.004*[#  42]+0.004*[#  43]+0.004*[#  44]+0.004*[#  46]+0.004*[#  47]
          +0.004*[#  48]+0.004*[#  50]+0.004*[#  51]+0.004*[#  52]
    |psi|^2 = 0.999
==== e(   6) =    -3.33630 eV ==== 
     psi = 0.081*[#  16]+0.081*[#  24]+0.081*[#  36]+0.080*[#  15]+0.080*[#  18]
          +0.080*[#  25]+0.080*[#  27]+0.080*[#  33]+0.080*[#  34]+0.078*[#   6]
          +0.078*[#   7]+0.078*[#   9]+0.004*[#  38]+0.004*[#  39]+0.004*[#  40]
          +0.004*[#  42]+0.004*[#  43]+0.004*[#  44]+0.004*[#  46]+0.004*[#  47]
          +0.004*[#  48]+0.004*[#  50]+0.004*[#  51]+0.004*[#  52]
    |psi|^2 = 0.999
==== e(   7) =    -3.33630 eV ==== 
     psi = 0.081*[#  16]+0.081*[#  24]+0.081*[#  36]+0.080*[#  15]+0.080*[#  18]
          +0.080*[#  25]+0.080*[#  27]+0.080*[#  33]+0.080*[#  34]+0.078*[#   6]
          +0.078*[#   7]+0.078*[#   9]+0.004*[#  38]+0.004*[#  39]+0.004*[#  40]
          +0.004*[#  42]+0.004*[#  43]+0.004*[#  44]+0.004*[#  46]+0.004*[#  47]
          +0.004*[#  48]+0.004*[#  50]+0.004*[#  51]+0.004*[#  52]
    |psi|^2 = 0.999
==== e(   8) =    -3.18768 eV ==== 
     psi = 0.322*[#  32]+0.242*[#  17]+0.242*[#  26]+0.081*[#  14]+0.081*[#  23]
          +0.003*[#  38]+0.003*[#  39]+0.003*[#  40]+0.003*[#  42]+0.003*[#  43]
          +0.003*[#  44]+0.003*[#  46]+0.003*[#  47]+0.003*[#  48]+0.003*[#  50]
          +0.003*[#  51]+0.003*[#  52]+0.001*[#   1]
    |psi|^2 = 0.999
==== e(   9) =    -3.18660 eV ==== 
     psi = 0.185*[#  35]+0.176*[#   5]+0.176*[#   8]+0.144*[#  14]+0.144*[#  23]
          +0.061*[#  17]+0.061*[#  26]+0.020*[#  32]+0.003*[#  38]+0.003*[#  39]
          +0.003*[#  40]+0.003*[#  42]+0.003*[#  43]+0.003*[#  44]+0.003*[#  46]
          +0.003*[#  47]+0.003*[#  48]+0.003*[#  50]+0.003*[#  51]+0.003*[#  52]
          
    |psi|^2 = 0.999
==== e(  10) =    -3.18660 eV ==== 
     psi = 0.185*[#  35]+0.176*[#   5]+0.176*[#   8]+0.144*[#  14]+0.144*[#  23]
          +0.061*[#  17]+0.061*[#  26]+0.020*[#  32]+0.003*[#  38]+0.003*[#  39]
          +0.003*[#  40]+0.003*[#  42]+0.003*[#  43]+0.003*[#  44]+0.003*[#  46]
          +0.003*[#  47]+0.003*[#  48]+0.003*[#  50]+0.003*[#  51]+0.003*[#  52]
          
    |psi|^2 = 0.999
==== e(  11) =    -3.18309 eV ==== 
     psi = 0.164*[#  15]+0.164*[#  18]+0.164*[#  25]+0.164*[#  27]+0.164*[#  33]
          +0.164*[#  34]+0.001*[#  38]+0.001*[#  39]+0.001*[#  40]+0.001*[#  42]
          +0.001*[#  43]+0.001*[#  44]+0.001*[#  46]+0.001*[#  47]+0.001*[#  48]
          +0.001*[#  50]+0.001*[#  51]+0.001*[#  52]
    |psi|^2 = 0.998
==== e(  12) =    -3.18309 eV ==== 
     psi = 0.164*[#  15]+0.164*[#  18]+0.164*[#  25]+0.164*[#  27]+0.164*[#  33]
          +0.164*[#  34]+0.001*[#  38]+0.001*[#  39]+0.001*[#  40]+0.001*[#  42]
          +0.001*[#  43]+0.001*[#  44]+0.001*[#  46]+0.001*[#  47]+0.001*[#  48]
          +0.001*[#  50]+0.001*[#  51]+0.001*[#  52]
    |psi|^2 = 0.998
==== e(  13) =    -3.18309 eV ==== 
     psi = 0.164*[#  15]+0.164*[#  18]+0.164*[#  25]+0.164*[#  27]+0.164*[#  33]
          +0.164*[#  34]+0.001*[#  38]+0.001*[#  39]+0.001*[#  40]+0.001*[#  42]
          +0.001*[#  43]+0.001*[#  44]+0.001*[#  46]+0.001*[#  47]+0.001*[#  48]
          +0.001*[#  50]+0.001*[#  51]+0.001*[#  52]
    |psi|^2 = 0.998
==== e(  14) =    -3.18164 eV ==== 
     psi = 0.165*[#   6]+0.165*[#   7]+0.165*[#   9]+0.163*[#  16]+0.163*[#  24]
          +0.163*[#  36]+0.001*[#  38]+0.001*[#  39]+0.001*[#  40]+0.001*[#  42]
          +0.001*[#  43]+0.001*[#  44]+0.001*[#  46]+0.001*[#  47]+0.001*[#  48]
          +0.001*[#  50]+0.001*[#  51]+0.001*[#  52]
    |psi|^2 = 0.998
==== e(  15) =    -3.18164 eV ==== 
     psi = 0.165*[#   6]+0.165*[#   7]+0.165*[#   9]+0.163*[#  16]+0.163*[#  24]
          +0.163*[#  36]+0.001*[#  38]+0.001*[#  39]+0.001*[#  40]+0.001*[#  42]
          +0.001*[#  43]+0.001*[#  44]+0.001*[#  46]+0.001*[#  47]+0.001*[#  48]
          +0.001*[#  50]+0.001*[#  51]+0.001*[#  52]
    |psi|^2 = 0.998
==== e(  16) =    -3.18164 eV ==== 
     psi = 0.165*[#   6]+0.165*[#   7]+0.165*[#   9]+0.163*[#  16]+0.163*[#  24]
          +0.163*[#  36]+0.001*[#  38]+0.001*[#  39]+0.001*[#  40]+0.001*[#  42]
          +0.001*[#  43]+0.001*[#  44]+0.001*[#  46]+0.001*[#  47]+0.001*[#  48]
          +0.001*[#  50]+0.001*[#  51]+0.001*[#  52]
    |psi|^2 = 0.998
==== e(  17) =    -3.09155 eV ==== 
     psi = 0.135*[#  32]+0.131*[#  17]+0.131*[#  26]+0.123*[#  14]+0.123*[#  23]
          +0.119*[#  35]+0.118*[#   5]+0.118*[#   8]
    |psi|^2 = 0.998
==== e(  18) =    -3.09155 eV ==== 
     psi = 0.135*[#  32]+0.131*[#  17]+0.131*[#  26]+0.123*[#  14]+0.123*[#  23]
          +0.119*[#  35]+0.118*[#   5]+0.118*[#   8]
    |psi|^2 = 0.998
==== e(  19) =    -3.06158 eV ==== 
     psi = 0.333*[#  35]+0.250*[#  14]+0.250*[#  23]+0.083*[#  17]+0.083*[#  26]
          
    |psi|^2 = 0.999
==== e(  20) =    -3.06052 eV ==== 
     psi = 0.199*[#   5]+0.199*[#   8]+0.177*[#  32]+0.139*[#  17]+0.139*[#  26]
          +0.061*[#  14]+0.061*[#  23]+0.023*[#  35]
    |psi|^2 = 0.999
==== e(  21) =    -3.06052 eV ==== 
     psi = 0.199*[#   5]+0.199*[#   8]+0.177*[#  32]+0.139*[#  17]+0.139*[#  26]
          +0.061*[#  14]+0.061*[#  23]+0.023*[#  35]
    |psi|^2 = 0.999
==== e(  22) =    -2.63160 eV ==== 
     psi = 0.070*[#   6]+0.070*[#   7]+0.070*[#   9]+0.069*[#  15]+0.069*[#  16]
          +0.069*[#  18]+0.069*[#  24]+0.069*[#  25]+0.069*[#  27]+0.069*[#  33]
          +0.069*[#  34]+0.069*[#  36]+0.027*[#  37]+0.027*[#  41]+0.027*[#  45]
          +0.027*[#  49]+0.005*[#   2]+0.005*[#   3]+0.005*[#   4]+0.005*[#  11]
          +0.005*[#  12]+0.005*[#  13]+0.005*[#  20]+0.005*[#  21]+0.005*[#  22]
          +0.005*[#  29]+0.005*[#  30]+0.005*[#  31]
    |psi|^2 = 0.999
==== e(  23) =    -2.63160 eV ==== 
     psi = 0.070*[#   6]+0.070*[#   7]+0.070*[#   9]+0.069*[#  15]+0.069*[#  16]
          +0.069*[#  18]+0.069*[#  24]+0.069*[#  25]+0.069*[#  27]+0.069*[#  33]
          +0.069*[#  34]+0.069*[#  36]+0.027*[#  37]+0.027*[#  41]+0.027*[#  45]
          +0.027*[#  49]+0.005*[#   2]+0.005*[#   3]+0.005*[#   4]+0.005*[#  11]
          +0.005*[#  12]+0.005*[#  13]+0.005*[#  20]+0.005*[#  21]+0.005*[#  22]
          +0.005*[#  29]+0.005*[#  30]+0.005*[#  31]
    |psi|^2 = 0.999
==== e(  24) =    -2.63160 eV ==== 
     psi = 0.070*[#   6]+0.070*[#   7]+0.070*[#   9]+0.069*[#  15]+0.069*[#  16]
          +0.069*[#  18]+0.069*[#  24]+0.069*[#  25]+0.069*[#  27]+0.069*[#  33]
          +0.069*[#  34]+0.069*[#  36]+0.027*[#  37]+0.027*[#  41]+0.027*[#  45]
          +0.027*[#  49]+0.005*[#   2]+0.005*[#   3]+0.005*[#   4]+0.005*[#  11]
          +0.005*[#  12]+0.005*[#  13]+0.005*[#  20]+0.005*[#  21]+0.005*[#  22]
          +0.005*[#  29]+0.005*[#  30]+0.005*[#  31]
    |psi|^2 = 0.999
==== e(  25) =     0.64370 eV ==== 
     psi = 0.137*[#  10]+0.137*[#  19]+0.137*[#  28]+0.046*[#  38]+0.046*[#  39]
          +0.046*[#  40]+0.046*[#  42]+0.046*[#  43]+0.046*[#  44]+0.046*[#  46]
          +0.046*[#  47]+0.046*[#  48]+0.046*[#  50]+0.046*[#  51]+0.046*[#  52]
          +0.005*[#   5]+0.005*[#   8]+0.005*[#  35]+0.004*[#  14]+0.004*[#  23]
          +0.002*[#  17]+0.002*[#  26]
    |psi|^2 = 0.994
==== e(  26) =     0.64370 eV ==== 
     psi = 0.137*[#  10]+0.137*[#  19]+0.137*[#  28]+0.046*[#  38]+0.046*[#  39]
          +0.046*[#  40]+0.046*[#  42]+0.046*[#  43]+0.046*[#  44]+0.046*[#  46]
          +0.046*[#  47]+0.046*[#  48]+0.046*[#  50]+0.046*[#  51]+0.046*[#  52]
          +0.005*[#   5]+0.005*[#   8]+0.005*[#  35]+0.004*[#  14]+0.004*[#  23]
          +0.002*[#  17]+0.002*[#  26]
    |psi|^2 = 0.994
==== e(  27) =     0.64438 eV ==== 
     psi = 0.309*[#   1]+0.046*[#  38]+0.046*[#  39]+0.046*[#  40]+0.046*[#  42]
          +0.046*[#  43]+0.046*[#  44]+0.046*[#  46]+0.046*[#  47]+0.046*[#  48]
          +0.046*[#  50]+0.046*[#  51]+0.046*[#  52]+0.034*[#  10]+0.034*[#  19]
          +0.034*[#  28]+0.008*[#  32]+0.006*[#  17]+0.006*[#  26]+0.002*[#  14]
          +0.002*[#  23]
    |psi|^2 = 0.994
==== e(  28) =     3.05091 eV ==== 
     psi = 0.063*[#  38]+0.063*[#  39]+0.063*[#  40]+0.063*[#  42]+0.063*[#  43]
          +0.063*[#  44]+0.063*[#  46]+0.063*[#  47]+0.063*[#  48]+0.063*[#  50]
          +0.063*[#  51]+0.063*[#  52]+0.039*[#  11]+0.039*[#  13]+0.039*[#  20]
          +0.039*[#  21]+0.039*[#  30]+0.039*[#  31]+0.002*[#  15]+0.002*[#  18]
          +0.002*[#  25]+0.002*[#  27]+0.002*[#  33]+0.002*[#  34]
    |psi|^2 = 0.999
==== e(  29) =     3.05091 eV ==== 
     psi = 0.063*[#  38]+0.063*[#  39]+0.063*[#  40]+0.063*[#  42]+0.063*[#  43]
          +0.063*[#  44]+0.063*[#  46]+0.063*[#  47]+0.063*[#  48]+0.063*[#  50]
          +0.063*[#  51]+0.063*[#  52]+0.039*[#  11]+0.039*[#  13]+0.039*[#  20]
          +0.039*[#  21]+0.039*[#  30]+0.039*[#  31]+0.002*[#  15]+0.002*[#  18]
          +0.002*[#  25]+0.002*[#  27]+0.002*[#  33]+0.002*[#  34]
    |psi|^2 = 0.999
==== e(  30) =     3.05091 eV ==== 
     psi = 0.063*[#  38]+0.063*[#  39]+0.063*[#  40]+0.063*[#  42]+0.063*[#  43]
          +0.063*[#  44]+0.063*[#  46]+0.063*[#  47]+0.063*[#  48]+0.063*[#  50]
          +0.063*[#  51]+0.063*[#  52]+0.039*[#  11]+0.039*[#  13]+0.039*[#  20]
          +0.039*[#  21]+0.039*[#  30]+0.039*[#  31]+0.002*[#  15]+0.002*[#  18]
          +0.002*[#  25]+0.002*[#  27]+0.002*[#  33]+0.002*[#  34]
    |psi|^2 = 0.999
==== e(  31) =     3.05110 eV ==== 
     psi = 0.063*[#  38]+0.063*[#  39]+0.063*[#  40]+0.063*[#  42]+0.063*[#  43]
          +0.063*[#  44]+0.063*[#  46]+0.063*[#  47]+0.063*[#  48]+0.063*[#  50]
          +0.063*[#  51]+0.063*[#  52]+0.039*[#   2]+0.039*[#   3]+0.039*[#   4]
          +0.039*[#  12]+0.039*[#  22]+0.039*[#  29]+0.002*[#   6]+0.002*[#   7]
          +0.002*[#   9]+0.002*[#  16]+0.002*[#  24]+0.002*[#  36]
    |psi|^2 = 0.999
==== e(  32) =     3.05110 eV ==== 
     psi = 0.063*[#  38]+0.063*[#  39]+0.063*[#  40]+0.063*[#  42]+0.063*[#  43]
          +0.063*[#  44]+0.063*[#  46]+0.063*[#  47]+0.063*[#  48]+0.063*[#  50]
          +0.063*[#  51]+0.063*[#  52]+0.039*[#   2]+0.039*[#   3]+0.039*[#   4]
          +0.039*[#  12]+0.039*[#  22]+0.039*[#  29]+0.002*[#   6]+0.002*[#   7]
          +0.002*[#   9]+0.002*[#  16]+0.002*[#  24]+0.002*[#  36]
    |psi|^2 = 0.999
==== e(  33) =     3.05110 eV ==== 
     psi = 0.063*[#  38]+0.063*[#  39]+0.063*[#  40]+0.063*[#  42]+0.063*[#  43]
          +0.063*[#  44]+0.063*[#  46]+0.063*[#  47]+0.063*[#  48]+0.063*[#  50]
          +0.063*[#  51]+0.063*[#  52]+0.039*[#   2]+0.039*[#   3]+0.039*[#   4]
          +0.039*[#  12]+0.039*[#  22]+0.039*[#  29]+0.002*[#   6]+0.002*[#   7]
          +0.002*[#   9]+0.002*[#  16]+0.002*[#  24]+0.002*[#  36]
    |psi|^2 = 0.999
==== e(  34) =     4.83633 eV ==== 
     psi = 0.076*[#  38]+0.076*[#  39]+0.076*[#  40]+0.076*[#  42]+0.076*[#  43]
          +0.076*[#  44]+0.076*[#  46]+0.076*[#  47]+0.076*[#  48]+0.076*[#  50]
          +0.076*[#  51]+0.076*[#  52]+0.004*[#   6]+0.004*[#   7]+0.004*[#   9]
          +0.004*[#  15]+0.004*[#  16]+0.004*[#  18]+0.004*[#  24]+0.004*[#  25]
          +0.004*[#  27]+0.004*[#  33]+0.004*[#  34]+0.004*[#  36]+0.003*[#   2]
          +0.003*[#   3]+0.003*[#   4]+0.003*[#  11]+0.003*[#  12]+0.003*[#  13]
          +0.003*[#  20]+0.003*[#  21]+0.003*[#  22]+0.003*[#  29]+0.003*[#  30]
          +0.003*[#  31]
    |psi|^2 = 0.998
==== e(  35) =     4.83633 eV ==== 
     psi = 0.076*[#  38]+0.076*[#  39]+0.076*[#  40]+0.076*[#  42]+0.076*[#  43]
          +0.076*[#  44]+0.076*[#  46]+0.076*[#  47]+0.076*[#  48]+0.076*[#  50]
          +0.076*[#  51]+0.076*[#  52]+0.004*[#   6]+0.004*[#   7]+0.004*[#   9]
          +0.004*[#  15]+0.004*[#  16]+0.004*[#  18]+0.004*[#  24]+0.004*[#  25]
          +0.004*[#  27]+0.004*[#  33]+0.004*[#  34]+0.004*[#  36]+0.003*[#   2]
          +0.003*[#   3]+0.003*[#   4]+0.003*[#  11]+0.003*[#  12]+0.003*[#  13]
          +0.003*[#  20]+0.003*[#  21]+0.003*[#  22]+0.003*[#  29]+0.003*[#  30]
          +0.003*[#  31]
    |psi|^2 = 0.998
==== e(  36) =     4.83633 eV ==== 
     psi = 0.076*[#  38]+0.076*[#  39]+0.076*[#  40]+0.076*[#  42]+0.076*[#  43]
          +0.076*[#  44]+0.076*[#  46]+0.076*[#  47]+0.076*[#  48]+0.076*[#  50]
          +0.076*[#  51]+0.076*[#  52]+0.004*[#   6]+0.004*[#   7]+0.004*[#   9]
          +0.004*[#  15]+0.004*[#  16]+0.004*[#  18]+0.004*[#  24]+0.004*[#  25]
          +0.004*[#  27]+0.004*[#  33]+0.004*[#  34]+0.004*[#  36]+0.003*[#   2]
          +0.003*[#   3]+0.003*[#   4]+0.003*[#  11]+0.003*[#  12]+0.003*[#  13]
          +0.003*[#  20]+0.003*[#  21]+0.003*[#  22]+0.003*[#  29]+0.003*[#  30]
          +0.003*[#  31]
    |psi|^2 = 0.998
==== e(  37) =     5.53243 eV ==== 
     psi = 0.184*[#   1]+0.185*[#  10]+0.185*[#  19]+0.185*[#  28]+0.062*[#  37]
          +0.062*[#  41]+0.062*[#  45]+0.062*[#  49]
    |psi|^2 = 0.985
==== e(  38) =     7.49755 eV ==== 
     psi = 0.060*[#   2]+0.060*[#   3]+0.060*[#   4]+0.060*[#  11]+0.060*[#  12]
          +0.060*[#  13]+0.060*[#  20]+0.060*[#  21]+0.060*[#  22]+0.060*[#  29]
          +0.060*[#  30]+0.060*[#  31]+0.042*[#  37]+0.042*[#  41]+0.042*[#  45]
          +0.042*[#  49]
    |psi|^2 = 0.897
==== e(  39) =     7.49755 eV ==== 
     psi = 0.060*[#   2]+0.060*[#   3]+0.060*[#   4]+0.060*[#  11]+0.060*[#  12]
          +0.060*[#  13]+0.060*[#  20]+0.060*[#  21]+0.060*[#  22]+0.060*[#  29]
          +0.060*[#  30]+0.060*[#  31]+0.042*[#  37]+0.042*[#  41]+0.042*[#  45]
          +0.042*[#  49]
    |psi|^2 = 0.897
==== e(  40) =     7.49755 eV ==== 
     psi = 0.060*[#   2]+0.060*[#   3]+0.060*[#   4]+0.060*[#  11]+0.060*[#  12]
          +0.060*[#  13]+0.060*[#  20]+0.060*[#  21]+0.060*[#  22]+0.060*[#  29]
          +0.060*[#  30]+0.060*[#  31]+0.042*[#  37]+0.042*[#  41]+0.042*[#  45]
          +0.042*[#  49]
    |psi|^2 = 0.897
==== e(  41) =     7.50809 eV ==== 
     psi = 0.148*[#  10]+0.148*[#  19]+0.148*[#  28]+0.029*[#  38]+0.029*[#  39]
          +0.029*[#  40]+0.029*[#  42]+0.029*[#  43]+0.029*[#  44]+0.029*[#  46]
          +0.029*[#  47]+0.029*[#  48]+0.029*[#  50]+0.029*[#  51]+0.029*[#  52]
          +0.001*[#   5]+0.001*[#   8]+0.001*[#  35]+0.001*[#  14]+0.001*[#  23]
          
    |psi|^2 = 0.801
==== e(  42) =     7.50809 eV ==== 
     psi = 0.148*[#  10]+0.148*[#  19]+0.148*[#  28]+0.029*[#  38]+0.029*[#  39]
          +0.029*[#  40]+0.029*[#  42]+0.029*[#  43]+0.029*[#  44]+0.029*[#  46]
          +0.029*[#  47]+0.029*[#  48]+0.029*[#  50]+0.029*[#  51]+0.029*[#  52]
          +0.001*[#   5]+0.001*[#   8]+0.001*[#  35]+0.001*[#  14]+0.001*[#  23]
          
    |psi|^2 = 0.801
==== e(  43) =     7.50816 eV ==== 
     psi = 0.333*[#   1]+0.037*[#  10]+0.037*[#  19]+0.037*[#  28]+0.029*[#  38]
          +0.029*[#  39]+0.029*[#  40]+0.029*[#  42]+0.029*[#  43]+0.029*[#  44]
          +0.029*[#  46]+0.029*[#  47]+0.029*[#  48]+0.029*[#  50]+0.029*[#  51]
          +0.029*[#  52]+0.003*[#  32]+0.002*[#  17]+0.002*[#  26]
    |psi|^2 = 0.801

 k =   0.0000000000  0.0000000000  0.1250000000
==== e(   1) =    -6.18598 eV ==== 
     psi = 0.184*[#  37]+0.184*[#  41]+0.184*[#  45]+0.184*[#  49]+0.058*[#   1]
          +0.058*[#  10]+0.058*[#  19]+0.058*[#  28]+0.002*[#   2]+0.002*[#   3]
          +0.002*[#   4]+0.002*[#  11]+0.002*[#  12]+0.002*[#  13]+0.002*[#  20]
          +0.002*[#  21]+0.002*[#  22]+0.002*[#  29]+0.002*[#  30]+0.002*[#  31]
          
    |psi|^2 = 0.997
==== e(   2) =    -5.73177 eV ==== 
     psi = 0.175*[#  37]+0.175*[#  41]+0.175*[#  45]+0.175*[#  49]+0.013*[#   6]
          +0.013*[#   7]+0.013*[#   9]+0.013*[#  15]+0.013*[#  16]+0.013*[#  18]
          +0.013*[#  24]+0.013*[#  25]+0.013*[#  27]+0.013*[#  33]+0.013*[#  34]
          +0.013*[#  36]+0.012*[#   2]+0.012*[#   3]+0.012*[#   4]+0.012*[#  11]
          +0.012*[#  12]+0.012*[#  13]+0.012*[#  20]+0.012*[#  21]+0.012*[#  22]
          +0.012*[#  29]+0.012*[#  30]+0.012*[#  31]+0.002*[#   1]+0.002*[#  10]
          +0.002*[#  19]+0.002*[#  28]
    |psi|^2 = 0.998
==== e(   3) =    -5.71441 eV ==== 
     psi = 0.174*[#  37]+0.174*[#  41]+0.174*[#  45]+0.174*[#  49]+0.013*[#   6]
          +0.013*[#   7]+0.013*[#   9]+0.013*[#  15]+0.013*[#  16]+0.013*[#  18]
          +0.013*[#  24]+0.013*[#  25]+0.013*[#  27]+0.013*[#  33]+0.013*[#  34]
          +0.013*[#  36]+0.012*[#   2]+0.012*[#   3]+0.012*[#   4]+0.012*[#  11]
          +0.012*[#  12]+0.012*[#  13]+0.012*[#  20]+0.012*[#  21]+0.012*[#  22]
          +0.012*[#  29]+0.012*[#  30]+0.012*[#  31]
    |psi|^2 = 0.999
==== e(   4) =    -5.71441 eV ==== 
     psi = 0.174*[#  37]+0.174*[#  41]+0.174*[#  45]+0.174*[#  49]+0.013*[#   6]
          +0.013*[#   7]+0.013*[#   9]+0.013*[#  15]+0.013*[#  16]+0.013*[#  18]
          +0.013*[#  24]+0.013*[#  25]+0.013*[#  27]+0.013*[#  33]+0.013*[#  34]
          +0.013*[#  36]+0.012*[#   2]+0.012*[#   3]+0.012*[#   4]+0.012*[#  11]
          +0.012*[#  12]+0.012*[#  13]+0.012*[#  20]+0.012*[#  21]+0.012*[#  22]
          +0.012*[#  29]+0.012*[#  30]+0.012*[#  31]
    |psi|^2 = 0.999
==== e(   5) =    -3.33101 eV ==== 
     psi = 0.081*[#  16]+0.081*[#  24]+0.081*[#  36]+0.080*[#  15]+0.080*[#  18]
          +0.080*[#  25]+0.080*[#  27]+0.080*[#  33]+0.080*[#  34]+0.078*[#   6]
          +0.078*[#   7]+0.078*[#   9]+0.004*[#  38]+0.004*[#  39]+0.004*[#  40]
          +0.004*[#  42]+0.004*[#  43]+0.004*[#  44]+0.004*[#  46]+0.004*[#  47]
          +0.004*[#  48]+0.004*[#  50]+0.004*[#  51]+0.004*[#  52]
    |psi|^2 = 0.999
==== e(   6) =    -3.33101 eV ==== 
     psi = 0.081*[#  16]+0.081*[#  24]+0.081*[#  36]+0.080*[#  15]+0.080*[#  18]
          +0.080*[#  25]+0.080*[#  27]+0.080*[#  33]+0.080*[#  34]+0.078*[#   6]
          +0.078*[#   7]+0.078*[#   9]+0.004*[#  38]+0.004*[#  39]+0.004*[#  40]
          +0.004*[#  42]+0.004*[#  43]+0.004*[#  44]+0.004*[#  46]+0.004*[#  47]
          +0.004*[#  48]+0.004*[#  50]+0.004*[#  51]+0.004*[#  52]
    |psi|^2 = 0.999
==== e(   7) =    -3.32517 eV ==== 
     psi = 0.080*[#  16]+0.080*[#  24]+0.080*[#  36]+0.079*[#  15]+0.079*[#  18]
          +0.079*[#  25]+0.079*[#  27]+0.079*[#  33]+0.079*[#  34]+0.077*[#   6]
          +0.077*[#   7]+0.077*[#   9]+0.004*[#  38]+0.004*[#  39]+0.004*[#  40]
          +0.004*[#  42]+0.004*[#  43]+0.004*[#  44]+0.004*[#  46]+0.004*[#  47]
          +0.004*[#  48]+0.004*[#  50]+0.004*[#  51]+0.004*[#  52]
    |psi|^2 = 0.999
==== e(   8) =    -3.19822 eV ==== 
     psi = 0.091*[#   5]+0.091*[#   8]+0.086*[#  35]+0.085*[#  15]+0.085*[#  18]
          +0.085*[#  25]+0.085*[#  27]+0.085*[#  33]+0.085*[#  34]+0.066*[#  14]
          +0.066*[#  23]+0.027*[#  17]+0.027*[#  26]+0.007*[#  32]+0.002*[#  38]
          +0.002*[#  39]+0.002*[#  40]+0.002*[#  42]+0.002*[#  43]+0.002*[#  44]
          +0.002*[#  46]+0.002*[#  47]+0.002*[#  48]+0.002*[#  50]+0.002*[#  51]
          +0.002*[#  52]
    |psi|^2 = 0.999
==== e(   9) =    -3.19794 eV ==== 
     psi = 0.120*[#  32]+0.098*[#  17]+0.098*[#  26]+0.080*[#   6]+0.080*[#   7]
          +0.080*[#   9]+0.078*[#  16]+0.078*[#  24]+0.078*[#  36]+0.054*[#  14]
          +0.054*[#  23]+0.031*[#  35]+0.021*[#   5]+0.021*[#   8]+0.002*[#  38]
          +0.002*[#  39]+0.002*[#  40]+0.002*[#  42]+0.002*[#  43]+0.002*[#  44]
          +0.002*[#  46]+0.002*[#  47]+0.002*[#  48]+0.002*[#  50]+0.002*[#  51]
          +0.002*[#  52]
    |psi|^2 = 0.999
==== e(  10) =    -3.18944 eV ==== 
     psi = 0.158*[#  15]+0.158*[#  18]+0.158*[#  25]+0.158*[#  27]+0.158*[#  33]
          +0.158*[#  34]+0.010*[#  16]+0.010*[#  24]+0.010*[#  36]+0.002*[#   6]
          +0.002*[#   7]+0.002*[#   9]+0.001*[#  38]+0.001*[#  39]+0.001*[#  40]
          +0.001*[#  42]+0.001*[#  43]+0.001*[#  44]+0.001*[#  46]+0.001*[#  47]
          +0.001*[#  48]+0.001*[#  50]+0.001*[#  51]+0.001*[#  52]
    |psi|^2 = 0.998
==== e(  11) =    -3.18944 eV ==== 
     psi = 0.158*[#  15]+0.158*[#  18]+0.158*[#  25]+0.158*[#  27]+0.158*[#  33]
          +0.158*[#  34]+0.010*[#  16]+0.010*[#  24]+0.010*[#  36]+0.002*[#   6]
          +0.002*[#   7]+0.002*[#   9]+0.001*[#  38]+0.001*[#  39]+0.001*[#  40]
          +0.001*[#  42]+0.001*[#  43]+0.001*[#  44]+0.001*[#  46]+0.001*[#  47]
          +0.001*[#  48]+0.001*[#  50]+0.001*[#  51]+0.001*[#  52]
    |psi|^2 = 0.998
==== e(  12) =    -3.18796 eV ==== 
     psi = 0.163*[#   6]+0.163*[#   7]+0.163*[#   9]+0.153*[#  16]+0.153*[#  24]
          +0.153*[#  36]+0.006*[#  15]+0.006*[#  18]+0.006*[#  25]+0.006*[#  27]
          +0.006*[#  33]+0.006*[#  34]+0.001*[#  38]+0.001*[#  39]+0.001*[#  40]
          +0.001*[#  42]+0.001*[#  43]+0.001*[#  44]+0.001*[#  46]+0.001*[#  47]
          +0.001*[#  48]+0.001*[#  50]+0.001*[#  51]+0.001*[#  52]
    |psi|^2 = 0.998
==== e(  13) =    -3.18796 eV ==== 
     psi = 0.163*[#   6]+0.163*[#   7]+0.163*[#   9]+0.153*[#  16]+0.153*[#  24]
          +0.153*[#  36]+0.006*[#  15]+0.006*[#  18]+0.006*[#  25]+0.006*[#  27]
          +0.006*[#  33]+0.006*[#  34]+0.001*[#  38]+0.001*[#  39]+0.001*[#  40]
          +0.001*[#  42]+0.001*[#  43]+0.001*[#  44]+0.001*[#  46]+0.001*[#  47]
          +0.001*[#  48]+0.001*[#  50]+0.001*[#  51]+0.001*[#  52]
    |psi|^2 = 0.998
==== e(  14) =    -3.18449 eV ==== 
     psi = 0.122*[#  35]+0.122*[#  14]+0.122*[#  23]+0.122*[#  17]+0.122*[#  26]
          +0.121*[#  32]+0.115*[#   5]+0.115*[#   8]+0.002*[#  38]+0.002*[#  39]
          +0.002*[#  40]+0.002*[#  42]+0.002*[#  43]+0.002*[#  44]+0.002*[#  46]
          +0.002*[#  47]+0.002*[#  48]+0.002*[#  50]+0.002*[#  51]+0.002*[#  52]
          +0.001*[#  16]+0.001*[#  24]+0.001*[#  36]
    |psi|^2 = 0.999
==== e(  15) =    -3.16776 eV ==== 
     psi = 0.100*[#  35]+0.086*[#   5]+0.086*[#   8]+0.078*[#  14]+0.078*[#  23]
          +0.078*[#  15]+0.078*[#  18]+0.078*[#  25]+0.078*[#  27]+0.078*[#  33]
          +0.078*[#  34]+0.035*[#  17]+0.035*[#  26]+0.013*[#  32]+0.001*[#  38]
          +0.001*[#  39]+0.001*[#  40]+0.001*[#  42]+0.001*[#  43]+0.001*[#  44]
          +0.001*[#  46]+0.001*[#  47]+0.001*[#  48]+0.001*[#  50]+0.001*[#  51]
          +0.001*[#  52]
    |psi|^2 = 0.998
==== e(  16) =    -3.16733 eV ==== 
     psi = 0.102*[#  32]+0.085*[#   6]+0.085*[#   7]+0.085*[#   9]+0.084*[#  17]
          +0.084*[#  26]+0.083*[#  16]+0.083*[#  24]+0.083*[#  36]+0.049*[#  14]
          +0.049*[#  23]+0.038*[#   5]+0.038*[#   8]+0.032*[#  35]+0.001*[#  38]
          +0.001*[#  39]+0.001*[#  40]+0.001*[#  42]+0.001*[#  43]+0.001*[#  44]
          +0.001*[#  46]+0.001*[#  47]+0.001*[#  48]+0.001*[#  50]+0.001*[#  51]
          +0.001*[#  52]
    |psi|^2 = 0.998
==== e(  17) =    -3.09333 eV ==== 
     psi = 0.134*[#  32]+0.130*[#  17]+0.130*[#  26]+0.122*[#  14]+0.122*[#  23]
          +0.119*[#  35]+0.118*[#   5]+0.118*[#   8]
    |psi|^2 = 0.998
==== e(  18) =    -3.09039 eV ==== 
     psi = 0.135*[#  32]+0.131*[#  17]+0.131*[#  26]+0.123*[#  14]+0.123*[#  23]
          +0.119*[#  35]+0.118*[#   5]+0.118*[#   8]
    |psi|^2 = 0.998
==== e(  19) =    -3.06387 eV ==== 
     psi = 0.295*[#  35]+0.227*[#  14]+0.227*[#  23]+0.090*[#  17]+0.090*[#  26]
          +0.023*[#   5]+0.023*[#   8]+0.021*[#  32]
    |psi|^2 = 0.999
==== e(  20) =    -3.06301 eV ==== 
     psi = 0.200*[#   5]+0.200*[#   8]+0.176*[#  32]+0.137*[#  17]+0.137*[#  26]
          +0.060*[#  14]+0.060*[#  23]+0.022*[#  35]
    |psi|^2 = 0.999
==== e(  21) =    -3.06191 eV ==== 
     psi = 0.176*[#   5]+0.176*[#   8]+0.156*[#  32]+0.132*[#  17]+0.132*[#  26]
          +0.084*[#  14]+0.084*[#  23]+0.060*[#  35]
    |psi|^2 = 0.999
==== e(  22) =    -2.68332 eV ==== 
     psi = 0.070*[#   6]+0.070*[#   7]+0.070*[#   9]+0.069*[#  15]+0.069*[#  16]
          +0.069*[#  18]+0.069*[#  24]+0.069*[#  25]+0.069*[#  27]+0.069*[#  33]
          +0.069*[#  34]+0.069*[#  36]+0.024*[#  37]+0.024*[#  41]+0.024*[#  45]
          +0.024*[#  49]+0.005*[#   2]+0.005*[#   3]+0.005*[#   4]+0.005*[#  11]
          +0.005*[#  12]+0.005*[#  13]+0.005*[#  20]+0.005*[#  21]+0.005*[#  22]
          +0.005*[#  29]+0.005*[#  30]+0.005*[#  31]+0.001*[#   1]+0.001*[#  10]
          +0.001*[#  19]+0.001*[#  28]
    |psi|^2 = 0.999
==== e(  23) =    -2.62007 eV ==== 
     psi = 0.070*[#   6]+0.070*[#   7]+0.070*[#   9]+0.069*[#  15]+0.069*[#  16]
          +0.069*[#  18]+0.069*[#  24]+0.069*[#  25]+0.069*[#  27]+0.069*[#  33]
          +0.069*[#  34]+0.069*[#  36]+0.027*[#  37]+0.027*[#  41]+0.027*[#  45]
          +0.027*[#  49]+0.005*[#   2]+0.005*[#   3]+0.005*[#   4]+0.005*[#  11]
          +0.005*[#  12]+0.005*[#  13]+0.005*[#  20]+0.005*[#  21]+0.005*[#  22]
          +0.005*[#  29]+0.005*[#  30]+0.005*[#  31]
    |psi|^2 = 0.999
==== e(  24) =    -2.62007 eV ==== 
     psi = 0.070*[#   6]+0.070*[#   7]+0.070*[#   9]+0.069*[#  15]+0.069*[#  16]
          +0.069*[#  18]+0.069*[#  24]+0.069*[#  25]+0.069*[#  27]+0.069*[#  33]
          +0.069*[#  34]+0.069*[#  36]+0.027*[#  37]+0.027*[#  41]+0.027*[#  45]
          +0.027*[#  49]+0.005*[#   2]+0.005*[#   3]+0.005*[#   4]+0.005*[#  11]
          +0.005*[#  12]+0.005*[#  13]+0.005*[#  20]+0.005*[#  21]+0.005*[#  22]
          +0.005*[#  29]+0.005*[#  30]+0.005*[#  31]
    |psi|^2 = 0.999
==== e(  25) =     0.65928 eV ==== 
     psi = 0.138*[#  10]+0.138*[#  19]+0.138*[#  28]+0.046*[#  38]+0.046*[#  39]
          +0.046*[#  40]+0.046*[#  42]+0.046*[#  43]+0.046*[#  44]+0.046*[#  46]
          +0.046*[#  47]+0.046*[#  48]+0.046*[#  50]+0.046*[#  51]+0.046*[#  52]
          +0.004*[#  35]+0.004*[#   5]+0.004*[#   8]+0.003*[#  14]+0.003*[#  23]
          +0.001*[#  17]+0.001*[#  26]
    |psi|^2 = 0.995
==== e(  26) =     0.65974 eV ==== 
     psi = 0.207*[#   1]+0.069*[#  10]+0.069*[#  19]+0.069*[#  28]+0.046*[#  38]
          +0.046*[#  39]+0.046*[#  40]+0.046*[#  42]+0.046*[#  43]+0.046*[#  44]
          +0.046*[#  46]+0.046*[#  47]+0.046*[#  48]+0.046*[#  50]+0.046*[#  51]
          +0.046*[#  52]+0.005*[#  32]+0.004*[#  17]+0.004*[#  26]+0.002*[#  14]
          +0.002*[#  23]+0.002*[#   5]+0.002*[#   8]+0.001*[#  35]
    |psi|^2 = 0.995
==== e(  27) =     0.76945 eV ==== 
     psi = 0.101*[#   1]+0.100*[#  10]+0.100*[#  19]+0.100*[#  28]+0.046*[#  38]
          +0.046*[#  39]+0.046*[#  40]+0.046*[#  42]+0.046*[#  43]+0.046*[#  44]
          +0.046*[#  46]+0.046*[#  47]+0.046*[#  48]+0.046*[#  50]+0.046*[#  51]
          +0.046*[#  52]+0.003*[#  37]+0.003*[#  41]+0.003*[#  45]+0.003*[#  49]
          +0.003*[#   5]+0.003*[#   8]+0.003*[#  14]+0.003*[#  17]+0.003*[#  23]
          +0.003*[#  26]+0.003*[#  32]+0.003*[#  35]
    |psi|^2 = 0.995
==== e(  28) =     2.98182 eV ==== 
     psi = 0.062*[#  38]+0.062*[#  39]+0.062*[#  40]+0.062*[#  42]+0.062*[#  43]
          +0.062*[#  44]+0.062*[#  46]+0.062*[#  47]+0.062*[#  48]+0.062*[#  50]
          +0.062*[#  51]+0.062*[#  52]+0.040*[#  11]+0.040*[#  13]+0.040*[#  20]
          +0.040*[#  21]+0.040*[#  30]+0.040*[#  31]+0.002*[#  15]+0.002*[#  18]
          +0.002*[#  25]+0.002*[#  27]+0.002*[#  33]+0.002*[#  34]
    |psi|^2 = 0.999
==== e(  29) =     2.98199 eV ==== 
     psi = 0.062*[#  38]+0.062*[#  39]+0.062*[#  40]+0.062*[#  42]+0.062*[#  43]
          +0.062*[#  44]+0.062*[#  46]+0.062*[#  47]+0.062*[#  48]+0.062*[#  50]
          +0.062*[#  51]+0.062*[#  52]+0.040*[#   2]+0.040*[#   3]+0.040*[#   4]
          +0.040*[#  12]+0.040*[#  22]+0.040*[#  29]+0.002*[#   6]+0.002*[#   7]
          +0.002*[#   9]+0.002*[#  16]+0.002*[#  24]+0.002*[#  36]+0.001*[#   1]
          
    |psi|^2 = 0.999
==== e(  30) =     3.00011 eV ==== 
     psi = 0.061*[#  38]+0.061*[#  39]+0.061*[#  40]+0.061*[#  42]+0.061*[#  43]
          +0.061*[#  44]+0.061*[#  46]+0.061*[#  47]+0.061*[#  48]+0.061*[#  50]
          +0.061*[#  51]+0.061*[#  52]+0.021*[#   2]+0.021*[#   3]+0.021*[#   4]
          +0.021*[#  11]+0.021*[#  12]+0.021*[#  13]+0.021*[#  20]+0.021*[#  21]
          +0.021*[#  22]+0.021*[#  29]+0.021*[#  30]+0.021*[#  31]+0.001*[#   6]
          +0.001*[#   7]+0.001*[#   9]+0.001*[#  15]+0.001*[#  16]+0.001*[#  18]
          +0.001*[#  24]+0.001*[#  25]+0.001*[#  27]+0.001*[#  33]+0.001*[#  34]
          +0.001*[#  36]
    |psi|^2 = 0.999
==== e(  31) =     3.00011 eV ==== 
     psi = 0.061*[#  38]+0.061*[#  39]+0.061*[#  40]+0.061*[#  42]+0.061*[#  43]
          +0.061*[#  44]+0.061*[#  46]+0.061*[#  47]+0.061*[#  48]+0.061*[#  50]
          +0.061*[#  51]+0.061*[#  52]+0.021*[#   2]+0.021*[#   3]+0.021*[#   4]
          +0.021*[#  11]+0.021*[#  12]+0.021*[#  13]+0.021*[#  20]+0.021*[#  21]
          +0.021*[#  22]+0.021*[#  29]+0.021*[#  30]+0.021*[#  31]+0.001*[#   6]
          +0.001*[#   7]+0.001*[#   9]+0.001*[#  15]+0.001*[#  16]+0.001*[#  18]
          +0.001*[#  24]+0.001*[#  25]+0.001*[#  27]+0.001*[#  33]+0.001*[#  34]
          +0.001*[#  36]
    |psi|^2 = 0.999
==== e(  32) =     3.10245 eV ==== 
     psi = 0.063*[#  38]+0.063*[#  39]+0.063*[#  40]+0.063*[#  42]+0.063*[#  43]
          +0.063*[#  44]+0.063*[#  46]+0.063*[#  47]+0.063*[#  48]+0.063*[#  50]
          +0.063*[#  51]+0.063*[#  52]+0.019*[#   2]+0.019*[#   3]+0.019*[#   4]
          +0.019*[#  11]+0.019*[#  12]+0.019*[#  13]+0.019*[#  20]+0.019*[#  21]
          +0.019*[#  22]+0.019*[#  29]+0.019*[#  30]+0.019*[#  31]+0.001*[#   6]
          +0.001*[#   7]+0.001*[#   9]+0.001*[#  15]+0.001*[#  16]+0.001*[#  18]
          +0.001*[#  24]+0.001*[#  25]+0.001*[#  27]+0.001*[#  33]+0.001*[#  34]
          +0.001*[#  36]
    |psi|^2 = 0.999
==== e(  33) =     3.10245 eV ==== 
     psi = 0.063*[#  38]+0.063*[#  39]+0.063*[#  40]+0.063*[#  42]+0.063*[#  43]
          +0.063*[#  44]+0.063*[#  46]+0.063*[#  47]+0.063*[#  48]+0.063*[#  50]
          +0.063*[#  51]+0.063*[#  52]+0.019*[#   2]+0.019*[#   3]+0.019*[#   4]
          +0.019*[#  11]+0.019*[#  12]+0.019*[#  13]+0.019*[#  20]+0.019*[#  21]
          +0.019*[#  22]+0.019*[#  29]+0.019*[#  30]+0.019*[#  31]+0.001*[#   6]
          +0.001*[#   7]+0.001*[#   9]+0.001*[#  15]+0.001*[#  16]+0.001*[#  18]
          +0.001*[#  24]+0.001*[#  25]+0.001*[#  27]+0.001*[#  33]+0.001*[#  34]
          +0.001*[#  36]
    |psi|^2 = 0.999
==== e(  34) =     4.31942 eV ==== 
     psi = 0.054*[#  38]+0.054*[#  39]+0.054*[#  40]+0.054*[#  42]+0.054*[#  43]
          +0.054*[#  44]+0.054*[#  46]+0.054*[#  47]+0.054*[#  48]+0.054*[#  50]
          +0.054*[#  51]+0.054*[#  52]+0.053*[#   1]+0.053*[#  10]+0.053*[#  19]
          +0.053*[#  28]+0.020*[#  37]+0.020*[#  41]+0.020*[#  45]+0.020*[#  49]
          +0.003*[#   6]+0.003*[#   7]+0.003*[#   9]+0.003*[#  15]+0.003*[#  16]
          +0.003*[#  18]+0.003*[#  24]+0.003*[#  25]+0.003*[#  27]+0.003*[#  33]
          +0.003*[#  34]+0.003*[#  36]+0.001*[#   2]+0.001*[#   3]+0.001*[#   4]
          +0.001*[#  11]+0.001*[#  12]+0.001*[#  13]+0.001*[#  20]+0.001*[#  21]
          +0.001*[#  22]+0.001*[#  29]+0.001*[#  30]+0.001*[#  31]
    |psi|^2 = 0.996
==== e(  35) =     4.73734 eV ==== 
     psi = 0.074*[#  38]+0.074*[#  39]+0.074*[#  40]+0.074*[#  42]+0.074*[#  43]
          +0.074*[#  44]+0.074*[#  46]+0.074*[#  47]+0.074*[#  48]+0.074*[#  50]
          +0.074*[#  51]+0.074*[#  52]+0.005*[#   2]+0.005*[#   3]+0.005*[#   4]
          +0.005*[#  11]+0.005*[#  12]+0.005*[#  13]+0.005*[#  20]+0.005*[#  21]
          +0.005*[#  22]+0.005*[#  29]+0.005*[#  30]+0.005*[#  31]+0.004*[#   6]
          +0.004*[#   7]+0.004*[#   9]+0.004*[#  15]+0.004*[#  16]+0.004*[#  18]
          +0.004*[#  24]+0.004*[#  25]+0.004*[#  27]+0.004*[#  33]+0.004*[#  34]
          +0.004*[#  36]
    |psi|^2 = 0.998
==== e(  36) =     4.73734 eV ==== 
     psi = 0.074*[#  38]+0.074*[#  39]+0.074*[#  40]+0.074*[#  42]+0.074*[#  43]
          +0.074*[#  44]+0.074*[#  46]+0.074*[#  47]+0.074*[#  48]+0.074*[#  50]
          +0.074*[#  51]+0.074*[#  52]+0.005*[#   2]+0.005*[#   3]+0.005*[#   4]
          +0.005*[#  11]+0.005*[#  12]+0.005*[#  13]+0.005*[#  20]+0.005*[#  21]
          +0.005*[#  22]+0.005*[#  29]+0.005*[#  30]+0.005*[#  31]+0.004*[#   6]
          +0.004*[#   7]+0.004*[#   9]+0.004*[#  15]+0.004*[#  16]+0.004*[#  18]
          +0.004*[#  24]+0.004*[#  25]+0.004*[#  27]+0.004*[#  33]+0.004*[#  34]
          +0.004*[#  36]
    |psi|^2 = 0.998
==== e(  37) =     6.06205 eV ==== 
     psi = 0.128*[#   1]+0.128*[#  10]+0.128*[#  19]+0.128*[#  28]+0.042*[#  37]
          +0.042*[#  41]+0.042*[#  45]+0.042*[#  49]+0.021*[#  38]+0.021*[#  39]
          +0.021*[#  40]+0.021*[#  42]+0.021*[#  43]+0.021*[#  44]+0.021*[#  46]
          +0.021*[#  47]+0.021*[#  48]+0.021*[#  50]+0.021*[#  51]+0.021*[#  52]
          +0.003*[#   2]+0.003*[#   3]+0.003*[#   4]+0.003*[#  11]+0.003*[#  12]
          +0.003*[#  13]+0.003*[#  20]+0.003*[#  21]+0.003*[#  22]+0.003*[#  29]
          +0.003*[#  30]+0.003*[#  31]
    |psi|^2 = 0.987
==== e(  38) =     7.45180 eV ==== 
     psi = 0.067*[#   1]+0.068*[#  10]+0.068*[#  19]+0.068*[#  28]+0.031*[#   2]
          +0.031*[#   3]+0.031*[#   4]+0.031*[#  11]+0.031*[#  12]+0.031*[#  13]
          +0.031*[#  20]+0.031*[#  21]+0.031*[#  22]+0.031*[#  29]+0.031*[#  30]
          +0.031*[#  31]+0.017*[#  37]+0.017*[#  41]+0.017*[#  45]+0.017*[#  49]
          +0.014*[#  38]+0.014*[#  39]+0.014*[#  40]+0.014*[#  42]+0.014*[#  43]
          +0.014*[#  44]+0.014*[#  46]+0.014*[#  47]+0.014*[#  48]+0.014*[#  50]
          +0.014*[#  51]+0.014*[#  52]
    |psi|^2 = 0.882
==== e(  39) =     7.64878 eV ==== 
     psi = 0.045*[#   1]+0.045*[#  10]+0.045*[#  19]+0.045*[#  28]+0.029*[#   2]
          +0.029*[#   3]+0.029*[#   4]+0.029*[#  11]+0.029*[#  12]+0.029*[#  13]
          +0.029*[#  20]+0.029*[#  21]+0.029*[#  22]+0.029*[#  29]+0.029*[#  30]
          +0.029*[#  31]+0.025*[#  37]+0.025*[#  41]+0.025*[#  45]+0.025*[#  49]
          +0.015*[#  38]+0.015*[#  39]+0.015*[#  40]+0.015*[#  42]+0.015*[#  43]
          +0.015*[#  44]+0.015*[#  46]+0.015*[#  47]+0.015*[#  48]+0.015*[#  50]
          +0.015*[#  51]+0.015*[#  52]
    |psi|^2 = 0.816
==== e(  40) =     7.67703 eV ==== 
     psi = 0.147*[#  10]+0.147*[#  19]+0.147*[#  28]+0.029*[#  38]+0.029*[#  39]
          +0.029*[#  40]+0.029*[#  42]+0.029*[#  43]+0.029*[#  44]+0.029*[#  46]
          +0.029*[#  47]+0.029*[#  48]+0.029*[#  50]+0.029*[#  51]+0.029*[#  52]
          +0.001*[#   5]+0.001*[#   8]+0.001*[#  35]
    |psi|^2 = 0.800
==== e(  41) =     7.67710 eV ==== 
     psi = 0.220*[#   1]+0.073*[#  10]+0.073*[#  19]+0.073*[#  28]+0.029*[#  38]
          +0.029*[#  39]+0.029*[#  40]+0.029*[#  42]+0.029*[#  43]+0.029*[#  44]
          +0.029*[#  46]+0.029*[#  47]+0.029*[#  48]+0.029*[#  50]+0.029*[#  51]
          +0.029*[#  52]+0.001*[#  32]+0.001*[#  17]+0.001*[#  26]
    |psi|^2 = 0.800
==== e(  42) =     7.67915 eV ==== 
     psi = 0.059*[#   2]+0.059*[#   3]+0.059*[#   4]+0.059*[#  11]+0.059*[#  12]
          +0.059*[#  13]+0.059*[#  20]+0.059*[#  21]+0.059*[#  22]+0.059*[#  29]
          +0.059*[#  30]+0.059*[#  31]+0.040*[#  37]+0.040*[#  41]+0.040*[#  45]
          +0.040*[#  49]+0.002*[#  38]+0.002*[#  39]+0.002*[#  40]+0.002*[#  42]
          +0.002*[#  43]+0.002*[#  44]+0.002*[#  46]+0.002*[#  47]+0.002*[#  48]
          +0.002*[#  50]+0.002*[#  51]+0.002*[#  52]
    |psi|^2 = 0.896
==== e(  43) =     7.67915 eV ==== 
     psi = 0.059*[#   2]+0.059*[#   3]+0.059*[#   4]+0.059*[#  11]+0.059*[#  12]
          +0.059*[#  13]+0.059*[#  20]+0.059*[#  21]+0.059*[#  22]+0.059*[#  29]
          +0.059*[#  30]+0.059*[#  31]+0.040*[#  37]+0.040*[#  41]+0.040*[#  45]
          +0.040*[#  49]+0.002*[#  38]+0.002*[#  39]+0.002*[#  40]+0.002*[#  42]
          +0.002*[#  43]+0.002*[#  44]+0.002*[#  46]+0.002*[#  47]+0.002*[#  48]
          +0.002*[#  50]+0.002*[#  51]+0.002*[#  52]
    |psi|^2 = 0.896

 k =   0.0000000000  0.0000000000  0.2500000000
==== e(   1) =    -6.13153 eV ==== 
     psi = 0.180*[#  37]+0.180*[#  41]+0.180*[#  45]+0.180*[#  49]+0.047*[#   1]
          +0.047*[#  10]+0.047*[#  19]+0.047*[#  28]+0.006*[#   2]+0.006*[#   3]
          +0.006*[#   4]+0.006*[#  11]+0.006*[#  12]+0.006*[#  13]+0.006*[#  20]
          +0.006*[#  21]+0.006*[#  22]+0.006*[#  29]+0.006*[#  30]+0.006*[#  31]
          +0.001*[#   6]+0.001*[#   7]+0.001*[#   9]+0.001*[#  15]+0.001*[#  16]
          +0.001*[#  18]+0.001*[#  24]+0.001*[#  25]+0.001*[#  27]+0.001*[#  33]
          +0.001*[#  34]+0.001*[#  36]
    |psi|^2 = 0.997
==== e(   2) =    -5.78263 eV ==== 
     psi = 0.174*[#  37]+0.174*[#  41]+0.174*[#  45]+0.174*[#  49]+0.012*[#   2]
          +0.012*[#   3]+0.012*[#   4]+0.012*[#  11]+0.012*[#  12]+0.012*[#  13]
          +0.012*[#  20]+0.012*[#  21]+0.012*[#  22]+0.012*[#  29]+0.012*[#  30]
          +0.012*[#  31]+0.011*[#   6]+0.011*[#   7]+0.011*[#   9]+0.011*[#  15]
          +0.011*[#  16]+0.011*[#  18]+0.011*[#  24]+0.011*[#  25]+0.011*[#  27]
          +0.011*[#  33]+0.011*[#  34]+0.011*[#  36]+0.006*[#   1]+0.006*[#  10]
          +0.006*[#  19]+0.006*[#  28]
    |psi|^2 = 0.998
==== e(   3) =    -5.71494 eV ==== 
     psi = 0.172*[#  37]+0.172*[#  41]+0.172*[#  45]+0.172*[#  49]+0.013*[#   6]
          +0.013*[#   7]+0.013*[#   9]+0.013*[#  15]+0.013*[#  16]+0.013*[#  18]
          +0.013*[#  24]+0.013*[#  25]+0.013*[#  27]+0.013*[#  33]+0.013*[#  34]
          +0.013*[#  36]+0.013*[#   2]+0.013*[#   3]+0.013*[#   4]+0.013*[#  11]
          +0.013*[#  12]+0.013*[#  13]+0.013*[#  20]+0.013*[#  21]+0.013*[#  22]
          +0.013*[#  29]+0.013*[#  30]+0.013*[#  31]
    |psi|^2 = 0.999
==== e(   4) =    -5.71494 eV ==== 
     psi = 0.172*[#  37]+0.172*[#  41]+0.172*[#  45]+0.172*[#  49]+0.013*[#   6]
          +0.013*[#   7]+0.013*[#   9]+0.013*[#  15]+0.013*[#  16]+0.013*[#  18]
          +0.013*[#  24]+0.013*[#  25]+0.013*[#  27]+0.013*[#  33]+0.013*[#  34]
          +0.013*[#  36]+0.013*[#   2]+0.013*[#   3]+0.013*[#   4]+0.013*[#  11]
          +0.013*[#  12]+0.013*[#  13]+0.013*[#  20]+0.013*[#  21]+0.013*[#  22]
          +0.013*[#  29]+0.013*[#  30]+0.013*[#  31]
    |psi|^2 = 0.999
==== e(   5) =    -3.31572 eV ==== 
     psi = 0.081*[#  16]+0.081*[#  24]+0.081*[#  36]+0.080*[#  15]+0.080*[#  18]
          +0.080*[#  25]+0.080*[#  27]+0.080*[#  33]+0.080*[#  34]+0.078*[#   6]
          +0.078*[#   7]+0.078*[#   9]+0.004*[#  38]+0.004*[#  39]+0.004*[#  40]
          +0.004*[#  42]+0.004*[#  43]+0.004*[#  44]+0.004*[#  46]+0.004*[#  47]
          +0.004*[#  48]+0.004*[#  50]+0.004*[#  51]+0.004*[#  52]
    |psi|^2 = 0.999
==== e(   6) =    -3.31572 eV ==== 
     psi = 0.081*[#  16]+0.081*[#  24]+0.081*[#  36]+0.080*[#  15]+0.080*[#  18]
          +0.080*[#  25]+0.080*[#  27]+0.080*[#  33]+0.080*[#  34]+0.078*[#   6]
          +0.078*[#   7]+0.078*[#   9]+0.004*[#  38]+0.004*[#  39]+0.004*[#  40]
          +0.004*[#  42]+0.004*[#  43]+0.004*[#  44]+0.004*[#  46]+0.004*[#  47]
          +0.004*[#  48]+0.004*[#  50]+0.004*[#  51]+0.004*[#  52]
    |psi|^2 = 0.999
==== e(   7) =    -3.29100 eV ==== 
     psi = 0.078*[#  16]+0.078*[#  24]+0.078*[#  36]+0.076*[#  15]+0.076*[#  18]
          +0.076*[#  25]+0.076*[#  27]+0.076*[#  33]+0.076*[#  34]+0.074*[#   6]
          +0.074*[#   7]+0.074*[#   9]+0.004*[#  38]+0.004*[#  39]+0.004*[#  40]
          +0.004*[#  42]+0.004*[#  43]+0.004*[#  44]+0.004*[#  46]+0.004*[#  47]
          +0.004*[#  48]+0.004*[#  50]+0.004*[#  51]+0.004*[#  52]+0.003*[#  14]
          +0.003*[#  23]+0.003*[#  35]+0.002*[#   5]+0.002*[#   8]+0.003*[#  17]
          +0.003*[#  26]+0.003*[#  32]+0.002*[#   1]+0.002*[#  10]+0.002*[#  19]
          +0.002*[#  28]+0.001*[#  37]+0.001*[#  41]+0.001*[#  45]+0.001*[#  49]
          
    |psi|^2 = 0.999
==== e(   8) =    -3.20741 eV ==== 
     psi = 0.099*[#  15]+0.099*[#  18]+0.099*[#  25]+0.099*[#  27]+0.099*[#  33]
          +0.099*[#  34]+0.081*[#   5]+0.081*[#   8]+0.066*[#  35]+0.051*[#  14]
          +0.051*[#  23]+0.019*[#  17]+0.019*[#  26]+0.003*[#  32]+0.002*[#  38]
          +0.002*[#  39]+0.002*[#  40]+0.002*[#  42]+0.002*[#  43]+0.002*[#  44]
          +0.002*[#  46]+0.002*[#  47]+0.002*[#  48]+0.002*[#  50]+0.002*[#  51]
          +0.002*[#  52]
    |psi|^2 = 0.999
==== e(   9) =    -3.20717 eV ==== 
     psi = 0.102*[#  15]+0.102*[#  18]+0.102*[#  25]+0.102*[#  27]+0.102*[#  33]
          +0.102*[#  34]+0.064*[#  16]+0.064*[#  24]+0.064*[#  36]+0.057*[#   6]
          +0.057*[#   7]+0.057*[#   9]+0.002*[#  38]+0.002*[#  39]+0.002*[#  40]
          +0.002*[#  42]+0.002*[#  43]+0.002*[#  44]+0.002*[#  46]+0.002*[#  47]
          +0.002*[#  48]+0.002*[#  50]+0.002*[#  51]+0.002*[#  52]
    |psi|^2 = 0.998
==== e(  10) =    -3.20717 eV ==== 
     psi = 0.102*[#  15]+0.102*[#  18]+0.102*[#  25]+0.102*[#  27]+0.102*[#  33]
          +0.102*[#  34]+0.064*[#  16]+0.064*[#  24]+0.064*[#  36]+0.057*[#   6]
          +0.057*[#   7]+0.057*[#   9]+0.002*[#  38]+0.002*[#  39]+0.002*[#  40]
          +0.002*[#  42]+0.002*[#  43]+0.002*[#  44]+0.002*[#  46]+0.002*[#  47]
          +0.002*[#  48]+0.002*[#  50]+0.002*[#  51]+0.002*[#  52]
    |psi|^2 = 0.998
==== e(  11) =    -3.20698 eV ==== 
     psi = 0.098*[#   6]+0.098*[#   7]+0.098*[#   9]+0.095*[#  16]+0.095*[#  24]
          +0.095*[#  32]+0.095*[#  36]+0.078*[#  17]+0.078*[#  26]+0.045*[#  14]
          +0.045*[#  23]+0.029*[#  35]+0.010*[#   5]+0.010*[#   8]+0.002*[#  38]
          +0.002*[#  39]+0.002*[#  40]+0.002*[#  42]+0.002*[#  43]+0.002*[#  44]
          +0.002*[#  46]+0.002*[#  47]+0.002*[#  48]+0.002*[#  50]+0.002*[#  51]
          +0.002*[#  52]
    |psi|^2 = 0.999
==== e(  12) =    -3.20250 eV ==== 
     psi = 0.108*[#   6]+0.108*[#   7]+0.108*[#   9]+0.098*[#  16]+0.098*[#  24]
          +0.098*[#  36]+0.061*[#  15]+0.061*[#  18]+0.061*[#  25]+0.061*[#  27]
          +0.061*[#  33]+0.061*[#  34]+0.001*[#  38]+0.001*[#  39]+0.001*[#  40]
          +0.001*[#  42]+0.001*[#  43]+0.001*[#  44]+0.001*[#  46]+0.001*[#  47]
          +0.001*[#  48]+0.001*[#  50]+0.001*[#  51]+0.001*[#  52]
    |psi|^2 = 0.998
==== e(  13) =    -3.20250 eV ==== 
     psi = 0.108*[#   6]+0.108*[#   7]+0.108*[#   9]+0.098*[#  16]+0.098*[#  24]
          +0.098*[#  36]+0.061*[#  15]+0.061*[#  18]+0.061*[#  25]+0.061*[#  27]
          +0.061*[#  33]+0.061*[#  34]+0.001*[#  38]+0.001*[#  39]+0.001*[#  40]
          +0.001*[#  42]+0.001*[#  43]+0.001*[#  44]+0.001*[#  46]+0.001*[#  47]
          +0.001*[#  48]+0.001*[#  50]+0.001*[#  51]+0.001*[#  52]
    |psi|^2 = 0.998
==== e(  14) =    -3.17815 eV ==== 
     psi = 0.121*[#  32]+0.120*[#  17]+0.120*[#  26]+0.119*[#  14]+0.119*[#  23]
          +0.118*[#  35]+0.111*[#   5]+0.111*[#   8]+0.002*[#  16]+0.002*[#  24]
          +0.002*[#  36]+0.002*[#  38]+0.002*[#  39]+0.002*[#  40]+0.002*[#  42]
          +0.002*[#  43]+0.002*[#  44]+0.002*[#  46]+0.002*[#  47]+0.002*[#  48]
          +0.002*[#  50]+0.002*[#  51]+0.002*[#  52]+0.002*[#  15]+0.002*[#  18]
          +0.002*[#  25]+0.002*[#  27]+0.002*[#  33]+0.002*[#  34]+0.002*[#   6]
          +0.002*[#   7]+0.002*[#   9]
    |psi|^2 = 0.999
==== e(  15) =    -3.14834 eV ==== 
     psi = 0.122*[#  35]+0.102*[#   5]+0.102*[#   8]+0.095*[#  14]+0.095*[#  23]
          +0.062*[#  15]+0.062*[#  18]+0.062*[#  25]+0.062*[#  27]+0.062*[#  33]
          +0.062*[#  34]+0.042*[#  17]+0.042*[#  26]+0.016*[#  32]
    |psi|^2 = 0.998
==== e(  16) =    -3.14813 eV ==== 
     psi = 0.130*[#  32]+0.107*[#  17]+0.107*[#  26]+0.065*[#   6]+0.065*[#   7]
          +0.065*[#   9]+0.064*[#  16]+0.064*[#  24]+0.064*[#  36]+0.062*[#  14]
          +0.062*[#  23]+0.046*[#   5]+0.046*[#   8]+0.039*[#  35]
    |psi|^2 = 0.998
==== e(  17) =    -3.09743 eV ==== 
     psi = 0.133*[#  32]+0.128*[#  17]+0.128*[#  26]+0.120*[#  14]+0.120*[#  23]
          +0.116*[#  35]+0.115*[#   5]+0.115*[#   8]+0.002*[#   6]+0.002*[#   7]
          +0.002*[#   9]+0.002*[#  15]+0.002*[#  18]+0.002*[#  25]+0.002*[#  27]
          +0.002*[#  33]+0.002*[#  34]+0.002*[#  16]+0.002*[#  24]+0.002*[#  36]
          
    |psi|^2 = 0.998
==== e(  18) =    -3.08708 eV ==== 
     psi = 0.140*[#  32]+0.134*[#  17]+0.134*[#  26]+0.122*[#  14]+0.122*[#  23]
          +0.117*[#  35]+0.115*[#   5]+0.115*[#   8]
    |psi|^2 = 0.998
==== e(  19) =    -3.07109 eV ==== 
     psi = 0.252*[#  35]+0.200*[#  14]+0.200*[#  23]+0.097*[#  17]+0.097*[#  26]
          +0.045*[#  32]+0.045*[#   5]+0.045*[#   8]+0.003*[#  15]+0.003*[#  18]
          +0.003*[#  25]+0.003*[#  27]+0.003*[#  33]+0.003*[#  34]
    |psi|^2 = 0.999
==== e(  20) =    -3.07024 eV ==== 
     psi = 0.206*[#   5]+0.206*[#   8]+0.170*[#  32]+0.133*[#  17]+0.133*[#  26]
          +0.057*[#  14]+0.057*[#  23]+0.020*[#  35]+0.003*[#  16]+0.003*[#  24]
          +0.003*[#  36]+0.002*[#   6]+0.002*[#   7]+0.002*[#   9]
    |psi|^2 = 0.999
==== e(  21) =    -3.06532 eV ==== 
     psi = 0.150*[#   5]+0.150*[#   8]+0.129*[#  32]+0.123*[#  17]+0.123*[#  26]
          +0.110*[#  14]+0.110*[#  23]+0.104*[#  35]
    |psi|^2 = 0.999
==== e(  22) =    -2.80944 eV ==== 
     psi = 0.069*[#   6]+0.069*[#   7]+0.069*[#   9]+0.068*[#  15]+0.068*[#  18]
          +0.068*[#  25]+0.068*[#  27]+0.068*[#  33]+0.068*[#  34]+0.068*[#  16]
          +0.068*[#  24]+0.068*[#  36]+0.018*[#  37]+0.018*[#  41]+0.018*[#  45]
          +0.018*[#  49]+0.005*[#   5]+0.005*[#   8]+0.004*[#  14]+0.004*[#  17]
          +0.004*[#  23]+0.004*[#  26]+0.004*[#  32]+0.004*[#  35]+0.004*[#   1]
          +0.004*[#  10]+0.004*[#  19]+0.004*[#  28]+0.004*[#   2]+0.004*[#   3]
          +0.004*[#   4]+0.004*[#  11]+0.004*[#  12]+0.004*[#  13]+0.004*[#  20]
          +0.004*[#  21]+0.004*[#  22]+0.004*[#  29]+0.004*[#  30]+0.004*[#  31]
          +0.001*[#  38]+0.001*[#  39]+0.001*[#  40]+0.001*[#  42]+0.001*[#  43]
          +0.001*[#  44]+0.001*[#  46]+0.001*[#  47]+0.001*[#  48]+0.001*[#  50]
          +0.001*[#  51]+0.001*[#  52]
    |psi|^2 = 0.998
==== e(  23) =    -2.59297 eV ==== 
     psi = 0.070*[#   6]+0.070*[#   7]+0.070*[#   9]+0.070*[#  15]+0.070*[#  16]
          +0.070*[#  18]+0.070*[#  24]+0.070*[#  25]+0.070*[#  27]+0.070*[#  33]
          +0.070*[#  34]+0.070*[#  36]+0.028*[#  37]+0.028*[#  41]+0.028*[#  45]
          +0.028*[#  49]+0.004*[#   2]+0.004*[#   3]+0.004*[#   4]+0.004*[#  11]
          +0.004*[#  12]+0.004*[#  13]+0.004*[#  20]+0.004*[#  21]+0.004*[#  22]
          +0.004*[#  29]+0.004*[#  30]+0.004*[#  31]
    |psi|^2 = 0.999
==== e(  24) =    -2.59297 eV ==== 
     psi = 0.070*[#   6]+0.070*[#   7]+0.070*[#   9]+0.070*[#  15]+0.070*[#  16]
          +0.070*[#  18]+0.070*[#  24]+0.070*[#  25]+0.070*[#  27]+0.070*[#  33]
          +0.070*[#  34]+0.070*[#  36]+0.028*[#  37]+0.028*[#  41]+0.028*[#  45]
          +0.028*[#  49]+0.004*[#   2]+0.004*[#   3]+0.004*[#   4]+0.004*[#  11]
          +0.004*[#  12]+0.004*[#  13]+0.004*[#  20]+0.004*[#  21]+0.004*[#  22]
          +0.004*[#  29]+0.004*[#  30]+0.004*[#  31]
    |psi|^2 = 0.999
==== e(  25) =     0.69933 eV ==== 
     psi = 0.141*[#  10]+0.141*[#  19]+0.141*[#  28]+0.046*[#  38]+0.046*[#  39]
          +0.046*[#  40]+0.046*[#  42]+0.046*[#  43]+0.046*[#  44]+0.046*[#  46]
          +0.046*[#  47]+0.046*[#  48]+0.046*[#  50]+0.046*[#  51]+0.046*[#  52]
          +0.003*[#  35]+0.003*[#   5]+0.003*[#   8]+0.002*[#  14]+0.002*[#  23]
          +0.001*[#  17]+0.001*[#  26]
    |psi|^2 = 0.995
==== e(  26) =     0.69982 eV ==== 
     psi = 0.212*[#   1]+0.071*[#  10]+0.071*[#  19]+0.071*[#  28]+0.046*[#  38]
          +0.046*[#  39]+0.046*[#  40]+0.046*[#  42]+0.046*[#  43]+0.046*[#  44]
          +0.046*[#  46]+0.046*[#  47]+0.046*[#  48]+0.046*[#  50]+0.046*[#  51]
          +0.046*[#  52]+0.003*[#  32]+0.003*[#  17]+0.003*[#  26]+0.001*[#   5]
          +0.001*[#   8]+0.002*[#  14]+0.002*[#  23]
    |psi|^2 = 0.995
==== e(  27) =     1.11409 eV ==== 
     psi = 0.093*[#   1]+0.093*[#  10]+0.093*[#  19]+0.093*[#  28]+0.045*[#  38]
          +0.045*[#  39]+0.045*[#  40]+0.045*[#  42]+0.045*[#  43]+0.045*[#  44]
          +0.045*[#  46]+0.045*[#  47]+0.045*[#  48]+0.045*[#  50]+0.045*[#  51]
          +0.045*[#  52]+0.010*[#  37]+0.010*[#  41]+0.010*[#  45]+0.010*[#  49]
          +0.002*[#   5]+0.002*[#   8]+0.002*[#  14]+0.002*[#  17]+0.002*[#  23]
          +0.002*[#  26]+0.002*[#  32]+0.002*[#  35]+0.002*[#   6]+0.002*[#   7]
          +0.002*[#   9]+0.002*[#  15]+0.002*[#  16]+0.002*[#  18]+0.002*[#  24]
          +0.002*[#  25]+0.002*[#  27]+0.002*[#  33]+0.002*[#  34]+0.002*[#  36]
          
    |psi|^2 = 0.996
==== e(  28) =     2.82192 eV ==== 
     psi = 0.060*[#  38]+0.060*[#  39]+0.060*[#  40]+0.060*[#  42]+0.060*[#  43]
          +0.060*[#  44]+0.060*[#  46]+0.060*[#  47]+0.060*[#  48]+0.060*[#  50]
          +0.060*[#  51]+0.060*[#  52]+0.041*[#  11]+0.041*[#  13]+0.041*[#  20]
          +0.041*[#  21]+0.041*[#  30]+0.041*[#  31]+0.002*[#   5]+0.002*[#   8]
          +0.002*[#  15]+0.002*[#  18]+0.002*[#  25]+0.002*[#  27]+0.002*[#  33]
          +0.002*[#  34]+0.002*[#  10]+0.002*[#  19]+0.002*[#  28]+0.002*[#  35]
          +0.001*[#  14]+0.001*[#  23]
    |psi|^2 = 0.998
==== e(  29) =     2.82205 eV ==== 
     psi = 0.060*[#  38]+0.060*[#  39]+0.060*[#  40]+0.060*[#  42]+0.060*[#  43]
          +0.060*[#  44]+0.060*[#  46]+0.060*[#  47]+0.060*[#  48]+0.060*[#  50]
          +0.060*[#  51]+0.060*[#  52]+0.041*[#   2]+0.041*[#   3]+0.041*[#   4]
          +0.041*[#  12]+0.041*[#  22]+0.041*[#  29]+0.002*[#   1]+0.002*[#   6]
          +0.002*[#   7]+0.002*[#   9]+0.002*[#  16]+0.002*[#  24]+0.002*[#  32]
          +0.002*[#  36]+0.002*[#  17]+0.002*[#  26]+0.001*[#  14]+0.001*[#  23]
          
    |psi|^2 = 0.998
==== e(  30) =     2.88460 eV ==== 
     psi = 0.058*[#  38]+0.058*[#  39]+0.058*[#  40]+0.058*[#  42]+0.058*[#  43]
          +0.058*[#  44]+0.058*[#  46]+0.058*[#  47]+0.058*[#  48]+0.058*[#  50]
          +0.058*[#  51]+0.058*[#  52]+0.024*[#   2]+0.024*[#   3]+0.024*[#   4]
          +0.025*[#  11]+0.024*[#  12]+0.025*[#  13]+0.025*[#  20]+0.025*[#  21]
          +0.024*[#  22]+0.024*[#  29]+0.025*[#  30]+0.025*[#  31]
    |psi|^2 = 0.998
==== e(  31) =     2.88460 eV ==== 
     psi = 0.058*[#  38]+0.058*[#  39]+0.058*[#  40]+0.058*[#  42]+0.058*[#  43]
          +0.058*[#  44]+0.058*[#  46]+0.058*[#  47]+0.058*[#  48]+0.058*[#  50]
          +0.058*[#  51]+0.058*[#  52]+0.024*[#   2]+0.024*[#   3]+0.024*[#   4]
          +0.025*[#  11]+0.024*[#  12]+0.025*[#  13]+0.025*[#  20]+0.025*[#  21]
          +0.024*[#  22]+0.024*[#  29]+0.025*[#  30]+0.025*[#  31]
    |psi|^2 = 0.998
==== e(  32) =     3.25308 eV ==== 
     psi = 0.063*[#  38]+0.063*[#  39]+0.063*[#  40]+0.063*[#  42]+0.063*[#  43]
          +0.063*[#  44]+0.063*[#  46]+0.063*[#  47]+0.063*[#  48]+0.063*[#  50]
          +0.063*[#  51]+0.063*[#  52]+0.018*[#   2]+0.018*[#   3]+0.018*[#   4]
          +0.018*[#  11]+0.018*[#  12]+0.018*[#  13]+0.018*[#  20]+0.018*[#  21]
          +0.018*[#  22]+0.018*[#  29]+0.018*[#  30]+0.018*[#  31]+0.002*[#   6]
          +0.002*[#   7]+0.002*[#   9]+0.002*[#  15]+0.002*[#  16]+0.002*[#  18]
          +0.002*[#  24]+0.002*[#  25]+0.002*[#  27]+0.002*[#  33]+0.002*[#  34]
          +0.002*[#  36]
    |psi|^2 = 0.999
==== e(  33) =     3.25308 eV ==== 
     psi = 0.063*[#  38]+0.063*[#  39]+0.063*[#  40]+0.063*[#  42]+0.063*[#  43]
          +0.063*[#  44]+0.063*[#  46]+0.063*[#  47]+0.063*[#  48]+0.063*[#  50]
          +0.063*[#  51]+0.063*[#  52]+0.018*[#   2]+0.018*[#   3]+0.018*[#   4]
          +0.018*[#  11]+0.018*[#  12]+0.018*[#  13]+0.018*[#  20]+0.018*[#  21]
          +0.018*[#  22]+0.018*[#  29]+0.018*[#  30]+0.018*[#  31]+0.002*[#   6]
          +0.002*[#   7]+0.002*[#   9]+0.002*[#  15]+0.002*[#  16]+0.002*[#  18]
          +0.002*[#  24]+0.002*[#  25]+0.002*[#  27]+0.002*[#  33]+0.002*[#  34]
          +0.002*[#  36]
    |psi|^2 = 0.999
==== e(  34) =     3.59181 eV ==== 
     psi = 0.067*[#   1]+0.067*[#  10]+0.067*[#  19]+0.067*[#  28]+0.048*[#  38]
          +0.048*[#  39]+0.048*[#  40]+0.048*[#  42]+0.048*[#  43]+0.048*[#  44]
          +0.048*[#  46]+0.048*[#  47]+0.048*[#  48]+0.048*[#  50]+0.048*[#  51]
          +0.048*[#  52]+0.026*[#  37]+0.026*[#  41]+0.026*[#  45]+0.026*[#  49]
          +0.003*[#   6]+0.003*[#   7]+0.003*[#   9]+0.003*[#  15]+0.003*[#  16]
          +0.003*[#  18]+0.003*[#  24]+0.003*[#  25]+0.003*[#  27]+0.003*[#  33]
          +0.003*[#  34]+0.003*[#  36]
    |psi|^2 = 0.997
==== e(  35) =     4.47993 eV ==== 
     psi = 0.071*[#  38]+0.071*[#  39]+0.071*[#  40]+0.071*[#  42]+0.071*[#  43]
          +0.071*[#  44]+0.071*[#  46]+0.071*[#  47]+0.071*[#  48]+0.071*[#  50]
          +0.071*[#  51]+0.071*[#  52]+0.008*[#   2]+0.008*[#   3]+0.008*[#   4]
          +0.008*[#  11]+0.008*[#  12]+0.008*[#  13]+0.008*[#  20]+0.008*[#  21]
          +0.008*[#  22]+0.008*[#  29]+0.008*[#  30]+0.008*[#  31]+0.003*[#   6]
          +0.003*[#   7]+0.003*[#   9]+0.003*[#  15]+0.003*[#  16]+0.003*[#  18]
          +0.003*[#  24]+0.003*[#  25]+0.003*[#  27]+0.003*[#  33]+0.003*[#  34]
          +0.003*[#  36]
    |psi|^2 = 0.998
==== e(  36) =     4.47993 eV ==== 
     psi = 0.071*[#  38]+0.071*[#  39]+0.071*[#  40]+0.071*[#  42]+0.071*[#  43]
          +0.071*[#  44]+0.071*[#  46]+0.071*[#  47]+0.071*[#  48]+0.071*[#  50]
          +0.071*[#  51]+0.071*[#  52]+0.008*[#   2]+0.008*[#   3]+0.008*[#   4]
          +0.008*[#  11]+0.008*[#  12]+0.008*[#  13]+0.008*[#  20]+0.008*[#  21]
          +0.008*[#  22]+0.008*[#  29]+0.008*[#  30]+0.008*[#  31]+0.003*[#   6]
          +0.003*[#   7]+0.003*[#   9]+0.003*[#  15]+0.003*[#  16]+0.003*[#  18]
          +0.003*[#  24]+0.003*[#  25]+0.003*[#  27]+0.003*[#  33]+0.003*[#  34]
          +0.003*[#  36]
    |psi|^2 = 0.998
==== e(  37) =     6.80382 eV ==== 
     psi = 0.111*[#  10]+0.111*[#  19]+0.111*[#  28]+0.110*[#   1]+0.035*[#  37]
          +0.035*[#  41]+0.035*[#  45]+0.035*[#  49]+0.028*[#  38]+0.028*[#  39]
          +0.028*[#  40]+0.028*[#  42]+0.028*[#  43]+0.028*[#  44]+0.028*[#  46]
          +0.028*[#  47]+0.028*[#  48]+0.028*[#  50]+0.028*[#  51]+0.028*[#  52]
          +0.005*[#   2]+0.005*[#   3]+0.005*[#   4]+0.005*[#  11]+0.005*[#  12]
          +0.005*[#  13]+0.005*[#  20]+0.005*[#  21]+0.005*[#  22]+0.005*[#  29]
          +0.005*[#  30]+0.005*[#  31]
    |psi|^2 = 0.983
==== e(  38) =     7.50301 eV ==== 
     psi = 0.085*[#   1]+0.085*[#  10]+0.085*[#  19]+0.085*[#  28]+0.029*[#   2]
          +0.029*[#   3]+0.029*[#   4]+0.029*[#  11]+0.029*[#  12]+0.029*[#  13]
          +0.029*[#  20]+0.029*[#  21]+0.029*[#  22]+0.029*[#  29]+0.029*[#  30]
          +0.029*[#  31]+0.015*[#  38]+0.015*[#  39]+0.015*[#  40]+0.015*[#  42]
          +0.015*[#  43]+0.015*[#  44]+0.015*[#  46]+0.015*[#  47]+0.015*[#  48]
          +0.015*[#  50]+0.015*[#  51]+0.015*[#  52]+0.010*[#  37]+0.010*[#  41]
          +0.010*[#  45]+0.010*[#  49]
    |psi|^2 = 0.905
==== e(  39) =     7.85907 eV ==== 
     psi = 0.032*[#   1]+0.032*[#  10]+0.032*[#  19]+0.032*[#  28]+0.032*[#   2]
          +0.032*[#   3]+0.032*[#   4]+0.032*[#  11]+0.032*[#  12]+0.032*[#  13]
          +0.032*[#  20]+0.032*[#  21]+0.032*[#  22]+0.032*[#  29]+0.032*[#  30]
          +0.032*[#  31]+0.031*[#  37]+0.031*[#  41]+0.031*[#  45]+0.031*[#  49]
          +0.014*[#  38]+0.014*[#  39]+0.014*[#  40]+0.014*[#  42]+0.014*[#  43]
          +0.014*[#  44]+0.014*[#  46]+0.014*[#  47]+0.014*[#  48]+0.014*[#  50]
          +0.014*[#  51]+0.014*[#  52]
    |psi|^2 = 0.808
==== e(  40) =     8.12522 eV ==== 
     psi = 0.147*[#  10]+0.147*[#  19]+0.147*[#  28]+0.030*[#  38]+0.030*[#  39]
          +0.030*[#  40]+0.030*[#  42]+0.030*[#  43]+0.030*[#  44]+0.030*[#  46]
          +0.030*[#  47]+0.030*[#  48]+0.030*[#  50]+0.030*[#  51]+0.030*[#  52]
          
    |psi|^2 = 0.810
==== e(  41) =     8.12534 eV ==== 
     psi = 0.221*[#   1]+0.073*[#  10]+0.073*[#  19]+0.073*[#  28]+0.030*[#  38]
          +0.030*[#  39]+0.030*[#  40]+0.030*[#  42]+0.030*[#  43]+0.030*[#  44]
          +0.030*[#  46]+0.030*[#  47]+0.030*[#  48]+0.030*[#  50]+0.030*[#  51]
          +0.030*[#  52]
    |psi|^2 = 0.810
==== e(  42) =     8.18379 eV ==== 
     psi = 0.056*[#   2]+0.056*[#   3]+0.056*[#   4]+0.056*[#  11]+0.056*[#  12]
          +0.056*[#  13]+0.056*[#  20]+0.056*[#  21]+0.056*[#  22]+0.056*[#  29]
          +0.056*[#  30]+0.056*[#  31]+0.032*[#  37]+0.032*[#  41]+0.032*[#  45]
          +0.032*[#  49]+0.007*[#  38]+0.007*[#  39]+0.007*[#  40]+0.007*[#  42]
          +0.007*[#  43]+0.007*[#  44]+0.007*[#  46]+0.007*[#  47]+0.007*[#  48]
          +0.007*[#  50]+0.007*[#  51]+0.007*[#  52]
    |psi|^2 = 0.892
==== e(  43) =     8.18379 eV ==== 
     psi = 0.056*[#   2]+0.056*[#   3]+0.056*[#   4]+0.056*[#  11]+0.056*[#  12]
          +0.056*[#  13]+0.056*[#  20]+0.056*[#  21]+0.056*[#  22]+0.056*[#  29]
          +0.056*[#  30]+0.056*[#  31]+0.032*[#  37]+0.032*[#  41]+0.032*[#  45]
          +0.032*[#  49]+0.007*[#  38]+0.007*[#  39]+0.007*[#  40]+0.007*[#  42]
          +0.007*[#  43]+0.007*[#  44]+0.007*[#  46]+0.007*[#  47]+0.007*[#  48]
          +0.007*[#  50]+0.007*[#  51]+0.007*[#  52]
    |psi|^2 = 0.892

 k =   0.0000000000  0.0000000000  0.3750000000
==== e(   1) =    -6.05009 eV ==== 
     psi = 0.177*[#  37]+0.177*[#  41]+0.177*[#  45]+0.177*[#  49]+0.034*[#   1]
          +0.034*[#  10]+0.034*[#  19]+0.034*[#  28]+0.010*[#   2]+0.010*[#   3]
          +0.010*[#   4]+0.010*[#  11]+0.010*[#  12]+0.010*[#  13]+0.010*[#  20]
          +0.010*[#  21]+0.010*[#  22]+0.010*[#  29]+0.010*[#  30]+0.010*[#  31]
          +0.003*[#   6]+0.003*[#   7]+0.003*[#   9]+0.003*[#  15]+0.003*[#  16]
          +0.003*[#  18]+0.003*[#  24]+0.003*[#  25]+0.003*[#  27]+0.003*[#  33]
          +0.003*[#  34]+0.003*[#  36]
    |psi|^2 = 0.998
==== e(   2) =    -5.86058 eV ==== 
     psi = 0.174*[#  37]+0.174*[#  41]+0.174*[#  45]+0.174*[#  49]+0.013*[#   1]
          +0.013*[#  10]+0.013*[#  19]+0.013*[#  28]+0.013*[#   2]+0.013*[#   3]
          +0.013*[#   4]+0.013*[#  11]+0.013*[#  12]+0.013*[#  13]+0.013*[#  20]
          +0.013*[#  21]+0.013*[#  22]+0.013*[#  29]+0.013*[#  30]+0.013*[#  31]
          +0.008*[#   6]+0.008*[#   7]+0.008*[#   9]+0.008*[#  15]+0.008*[#  16]
          +0.008*[#  18]+0.008*[#  24]+0.008*[#  25]+0.008*[#  27]+0.008*[#  33]
          +0.008*[#  34]+0.008*[#  36]
    |psi|^2 = 0.998
==== e(   3) =    -5.71547 eV ==== 
     psi = 0.170*[#  37]+0.170*[#  41]+0.170*[#  45]+0.170*[#  49]+0.013*[#   2]
          +0.013*[#   3]+0.013*[#   4]+0.013*[#  11]+0.013*[#  12]+0.013*[#  13]
          +0.013*[#  20]+0.013*[#  21]+0.013*[#  22]+0.013*[#  29]+0.013*[#  30]
          +0.013*[#  31]+0.013*[#   6]+0.013*[#   7]+0.013*[#   9]+0.013*[#  15]
          +0.013*[#  16]+0.013*[#  18]+0.013*[#  24]+0.013*[#  25]+0.013*[#  27]
          +0.013*[#  33]+0.013*[#  34]+0.013*[#  36]
    |psi|^2 = 0.999
==== e(   4) =    -5.71547 eV ==== 
     psi = 0.170*[#  37]+0.170*[#  41]+0.170*[#  45]+0.170*[#  49]+0.013*[#   2]
          +0.013*[#   3]+0.013*[#   4]+0.013*[#  11]+0.013*[#  12]+0.013*[#  13]
          +0.013*[#  20]+0.013*[#  21]+0.013*[#  22]+0.013*[#  29]+0.013*[#  30]
          +0.013*[#  31]+0.013*[#   6]+0.013*[#   7]+0.013*[#   9]+0.013*[#  15]
          +0.013*[#  16]+0.013*[#  18]+0.013*[#  24]+0.013*[#  25]+0.013*[#  27]
          +0.013*[#  33]+0.013*[#  34]+0.013*[#  36]
    |psi|^2 = 0.999
==== e(   5) =    -3.29222 eV ==== 
     psi = 0.082*[#  16]+0.082*[#  24]+0.082*[#  36]+0.081*[#  15]+0.081*[#  18]
          +0.081*[#  25]+0.081*[#  27]+0.081*[#  33]+0.081*[#  34]+0.077*[#   6]
          +0.077*[#   7]+0.077*[#   9]+0.003*[#  38]+0.003*[#  39]+0.003*[#  40]
          +0.003*[#  42]+0.003*[#  43]+0.003*[#  44]+0.003*[#  46]+0.003*[#  47]
          +0.003*[#  48]+0.003*[#  50]+0.003*[#  51]+0.003*[#  52]
    |psi|^2 = 0.999
==== e(   6) =    -3.29222 eV ==== 
     psi = 0.082*[#  16]+0.082*[#  24]+0.082*[#  36]+0.081*[#  15]+0.081*[#  18]
          +0.081*[#  25]+0.081*[#  27]+0.081*[#  33]+0.081*[#  34]+0.077*[#   6]
          +0.077*[#   7]+0.077*[#   9]+0.003*[#  38]+0.003*[#  39]+0.003*[#  40]
          +0.003*[#  42]+0.003*[#  43]+0.003*[#  44]+0.003*[#  46]+0.003*[#  47]
          +0.003*[#  48]+0.003*[#  50]+0.003*[#  51]+0.003*[#  52]
    |psi|^2 = 0.999
==== e(   7) =    -3.23491 eV ==== 
     psi = 0.073*[#  16]+0.073*[#  24]+0.073*[#  36]+0.067*[#  15]+0.067*[#  18]
          +0.067*[#  25]+0.067*[#  27]+0.067*[#  33]+0.067*[#  34]+0.061*[#   6]
          +0.061*[#   7]+0.061*[#   9]+0.015*[#  35]+0.015*[#  14]+0.015*[#  23]
          +0.014*[#  17]+0.014*[#  26]+0.013*[#   5]+0.013*[#   8]+0.013*[#  32]
          +0.004*[#  38]+0.004*[#  39]+0.004*[#  40]+0.004*[#  42]+0.004*[#  43]
          +0.004*[#  44]+0.004*[#  46]+0.004*[#  47]+0.004*[#  48]+0.004*[#  50]
          +0.004*[#  51]+0.004*[#  52]+0.004*[#   1]+0.004*[#  10]+0.004*[#  19]
          +0.004*[#  28]+0.002*[#  37]+0.002*[#  41]+0.002*[#  45]+0.002*[#  49]
          
    |psi|^2 = 0.999
==== e(   8) =    -3.23350 eV ==== 
     psi = 0.085*[#  15]+0.085*[#  18]+0.085*[#  25]+0.085*[#  27]+0.085*[#  33]
          +0.085*[#  34]+0.077*[#  16]+0.077*[#  24]+0.077*[#  36]+0.076*[#   6]
          +0.076*[#   7]+0.076*[#   9]+0.002*[#  38]+0.002*[#  39]+0.002*[#  40]
          +0.002*[#  42]+0.002*[#  43]+0.002*[#  44]+0.002*[#  46]+0.002*[#  47]
          +0.002*[#  48]+0.002*[#  50]+0.002*[#  51]+0.002*[#  52]
    |psi|^2 = 0.999
==== e(   9) =    -3.23350 eV ==== 
     psi = 0.085*[#  15]+0.085*[#  18]+0.085*[#  25]+0.085*[#  27]+0.085*[#  33]
          +0.085*[#  34]+0.077*[#  16]+0.077*[#  24]+0.077*[#  36]+0.076*[#   6]
          +0.076*[#   7]+0.076*[#   9]+0.002*[#  38]+0.002*[#  39]+0.002*[#  40]
          +0.002*[#  42]+0.002*[#  43]+0.002*[#  44]+0.002*[#  46]+0.002*[#  47]
          +0.002*[#  48]+0.002*[#  50]+0.002*[#  51]+0.002*[#  52]
    |psi|^2 = 0.999
==== e(  10) =    -3.21559 eV ==== 
     psi = 0.090*[#   6]+0.090*[#   7]+0.090*[#   9]+0.084*[#  16]+0.084*[#  24]
          +0.084*[#  36]+0.077*[#  15]+0.077*[#  18]+0.077*[#  25]+0.077*[#  27]
          +0.077*[#  33]+0.077*[#  34]+0.001*[#  38]+0.001*[#  39]+0.001*[#  40]
          +0.001*[#  42]+0.001*[#  43]+0.001*[#  44]+0.001*[#  46]+0.001*[#  47]
          +0.001*[#  48]+0.001*[#  50]+0.001*[#  51]+0.001*[#  52]
    |psi|^2 = 0.998
==== e(  11) =    -3.21559 eV ==== 
     psi = 0.090*[#   6]+0.090*[#   7]+0.090*[#   9]+0.084*[#  16]+0.084*[#  24]
          +0.084*[#  36]+0.077*[#  15]+0.077*[#  18]+0.077*[#  25]+0.077*[#  27]
          +0.077*[#  33]+0.077*[#  34]+0.001*[#  38]+0.001*[#  39]+0.001*[#  40]
          +0.001*[#  42]+0.001*[#  43]+0.001*[#  44]+0.001*[#  46]+0.001*[#  47]
          +0.001*[#  48]+0.001*[#  50]+0.001*[#  51]+0.001*[#  52]
    |psi|^2 = 0.998
==== e(  12) =    -3.21276 eV ==== 
     psi = 0.107*[#  15]+0.107*[#  18]+0.107*[#  25]+0.107*[#  27]+0.107*[#  33]
          +0.107*[#  34]+0.077*[#   5]+0.077*[#   8]+0.056*[#  35]+0.042*[#  14]
          +0.042*[#  23]+0.015*[#  17]+0.015*[#  26]+0.003*[#  38]+0.003*[#  39]
          +0.003*[#  40]+0.003*[#  42]+0.003*[#  43]+0.003*[#  44]+0.003*[#  46]
          +0.003*[#  47]+0.003*[#  48]+0.003*[#  50]+0.003*[#  51]+0.003*[#  52]
          
    |psi|^2 = 0.999
==== e(  13) =    -3.21225 eV ==== 
     psi = 0.109*[#   6]+0.109*[#   7]+0.109*[#   9]+0.100*[#  16]+0.100*[#  24]
          +0.100*[#  36]+0.084*[#  32]+0.070*[#  17]+0.070*[#  26]+0.041*[#  14]
          +0.041*[#  23]+0.026*[#  35]+0.003*[#   5]+0.003*[#   8]+0.003*[#  38]
          +0.003*[#  39]+0.003*[#  40]+0.003*[#  42]+0.003*[#  43]+0.003*[#  44]
          +0.003*[#  46]+0.003*[#  47]+0.003*[#  48]+0.003*[#  50]+0.003*[#  51]
          +0.003*[#  52]
    |psi|^2 = 0.999
==== e(  14) =    -3.17217 eV ==== 
     psi = 0.112*[#  32]+0.111*[#  17]+0.111*[#  26]+0.109*[#  14]+0.109*[#  23]
          +0.109*[#  35]+0.102*[#   5]+0.102*[#   8]+0.008*[#  15]+0.008*[#  18]
          +0.008*[#  25]+0.008*[#  27]+0.008*[#  33]+0.008*[#  34]+0.008*[#  16]
          +0.008*[#  24]+0.008*[#  36]+0.007*[#   6]+0.007*[#   7]+0.007*[#   9]
          +0.003*[#  38]+0.003*[#  39]+0.003*[#  40]+0.003*[#  42]+0.003*[#  43]
          +0.003*[#  44]+0.003*[#  46]+0.003*[#  47]+0.003*[#  48]+0.003*[#  50]
          +0.003*[#  51]+0.003*[#  52]+0.001*[#   1]+0.001*[#  10]+0.001*[#  19]
          +0.001*[#  28]
    |psi|^2 = 0.999
==== e(  15) =    -3.12916 eV ==== 
     psi = 0.149*[#  32]+0.124*[#  17]+0.124*[#  26]+0.073*[#  14]+0.073*[#  23]
          +0.055*[#  16]+0.055*[#  24]+0.055*[#  36]+0.055*[#   6]+0.055*[#   7]
          +0.055*[#   9]+0.048*[#  35]+0.033*[#   5]+0.033*[#   8]
    |psi|^2 = 0.998
==== e(  16) =    -3.12909 eV ==== 
     psi = 0.130*[#  35]+0.125*[#   5]+0.125*[#   8]+0.100*[#  14]+0.100*[#  23]
          +0.053*[#  15]+0.053*[#  18]+0.053*[#  25]+0.053*[#  27]+0.053*[#  33]
          +0.053*[#  34]+0.041*[#  17]+0.041*[#  26]+0.012*[#  32]
    |psi|^2 = 0.998
==== e(  17) =    -3.09763 eV ==== 
     psi = 0.126*[#  32]+0.120*[#  17]+0.120*[#  26]+0.108*[#  14]+0.108*[#  23]
          +0.102*[#  35]+0.099*[#   5]+0.099*[#   8]+0.011*[#   6]+0.011*[#   7]
          +0.011*[#   9]+0.009*[#  15]+0.009*[#  18]+0.009*[#  25]+0.009*[#  27]
          +0.009*[#  33]+0.009*[#  34]+0.008*[#  16]+0.008*[#  24]+0.008*[#  36]
          
    |psi|^2 = 0.998
==== e(  18) =    -3.08246 eV ==== 
     psi = 0.201*[#  32]+0.180*[#  17]+0.180*[#  26]+0.139*[#  14]+0.139*[#  23]
          +0.118*[#  35]+0.016*[#   5]+0.016*[#   8]+0.002*[#  15]+0.002*[#  18]
          +0.002*[#  25]+0.002*[#  27]+0.002*[#  33]+0.002*[#  34]
    |psi|^2 = 0.999
==== e(  19) =    -3.08174 eV ==== 
     psi = 0.238*[#  35]+0.180*[#  14]+0.180*[#  23]+0.127*[#   5]+0.127*[#   8]
          +0.064*[#  17]+0.064*[#  26]+0.005*[#  32]+0.002*[#  15]+0.002*[#  18]
          +0.002*[#  25]+0.002*[#  27]+0.002*[#  33]+0.002*[#  34]
    |psi|^2 = 0.999
==== e(  20) =    -3.08100 eV ==== 
     psi = 0.230*[#   5]+0.230*[#   8]+0.158*[#  32]+0.122*[#  17]+0.122*[#  26]
          +0.050*[#  14]+0.050*[#  23]+0.014*[#  35]+0.004*[#  16]+0.004*[#  24]
          +0.004*[#  36]+0.003*[#   6]+0.003*[#   7]+0.003*[#   9]
    |psi|^2 = 0.999
==== e(  21) =    -3.07030 eV ==== 
     psi = 0.150*[#   5]+0.150*[#   8]+0.120*[#  35]+0.118*[#  14]+0.118*[#  23]
          +0.115*[#  17]+0.115*[#  26]+0.113*[#  32]
    |psi|^2 = 0.999
==== e(  22) =    -2.95332 eV ==== 
     psi = 0.066*[#   6]+0.066*[#   7]+0.066*[#   9]+0.064*[#  15]+0.064*[#  18]
          +0.064*[#  25]+0.064*[#  27]+0.064*[#  33]+0.064*[#  34]+0.064*[#  16]
          +0.064*[#  24]+0.064*[#  36]+0.015*[#   5]+0.015*[#   8]+0.014*[#  14]
          +0.014*[#  17]+0.014*[#  23]+0.014*[#  26]+0.015*[#  32]+0.014*[#  35]
          +0.011*[#  37]+0.011*[#  41]+0.011*[#  45]+0.011*[#  49]+0.005*[#   1]
          +0.005*[#  10]+0.005*[#  19]+0.005*[#  28]+0.002*[#   2]+0.002*[#   3]
          +0.002*[#   4]+0.002*[#  11]+0.002*[#  12]+0.002*[#  13]+0.002*[#  20]
          +0.002*[#  21]+0.002*[#  22]+0.002*[#  29]+0.002*[#  30]+0.002*[#  31]
          +0.002*[#  38]+0.002*[#  39]+0.002*[#  40]+0.002*[#  42]+0.002*[#  43]
          +0.002*[#  44]+0.002*[#  46]+0.002*[#  47]+0.002*[#  48]+0.002*[#  50]
          +0.002*[#  51]+0.002*[#  52]
    |psi|^2 = 0.998
==== e(  23) =    -2.56676 eV ==== 
     psi = 0.070*[#   6]+0.070*[#   7]+0.070*[#   9]+0.070*[#  15]+0.070*[#  16]
          +0.070*[#  18]+0.070*[#  24]+0.070*[#  25]+0.070*[#  27]+0.070*[#  33]
          +0.070*[#  34]+0.070*[#  36]+0.029*[#  37]+0.029*[#  41]+0.029*[#  45]
          +0.029*[#  49]+0.004*[#   2]+0.004*[#   3]+0.004*[#   4]+0.004*[#  11]
          +0.004*[#  12]+0.004*[#  13]+0.004*[#  20]+0.004*[#  21]+0.004*[#  22]
          +0.004*[#  29]+0.004*[#  30]+0.004*[#  31]
    |psi|^2 = 0.999
==== e(  24) =    -2.56676 eV ==== 
     psi = 0.070*[#   6]+0.070*[#   7]+0.070*[#   9]+0.070*[#  15]+0.070*[#  16]
          +0.070*[#  18]+0.070*[#  24]+0.070*[#  25]+0.070*[#  27]+0.070*[#  33]
          +0.070*[#  34]+0.070*[#  36]+0.029*[#  37]+0.029*[#  41]+0.029*[#  45]
          +0.029*[#  49]+0.004*[#   2]+0.004*[#   3]+0.004*[#   4]+0.004*[#  11]
          +0.004*[#  12]+0.004*[#  13]+0.004*[#  20]+0.004*[#  21]+0.004*[#  22]
          +0.004*[#  29]+0.004*[#  30]+0.004*[#  31]
    |psi|^2 = 0.999
==== e(  25) =     0.74347 eV ==== 
     psi = 0.145*[#  10]+0.145*[#  19]+0.145*[#  28]+0.046*[#  38]+0.046*[#  39]
          +0.046*[#  40]+0.046*[#  42]+0.046*[#  43]+0.046*[#  44]+0.046*[#  46]
          +0.046*[#  47]+0.046*[#  48]+0.046*[#  50]+0.046*[#  51]+0.046*[#  52]
          +0.002*[#  35]+0.001*[#  14]+0.001*[#  23]
    |psi|^2 = 0.996
==== e(  26) =     0.74399 eV ==== 
     psi = 0.217*[#   1]+0.073*[#  10]+0.073*[#  19]+0.073*[#  28]+0.046*[#  38]
          +0.046*[#  39]+0.046*[#  40]+0.046*[#  42]+0.046*[#  43]+0.046*[#  44]
          +0.046*[#  46]+0.046*[#  47]+0.046*[#  48]+0.046*[#  50]+0.046*[#  51]
          +0.046*[#  52]+0.002*[#  32]+0.001*[#   5]+0.001*[#   8]+0.001*[#  17]
          +0.001*[#  26]
    |psi|^2 = 0.996
==== e(  27) =     1.61393 eV ==== 
     psi = 0.085*[#   1]+0.085*[#  10]+0.085*[#  19]+0.085*[#  28]+0.045*[#  38]
          +0.045*[#  39]+0.045*[#  40]+0.045*[#  42]+0.045*[#  43]+0.045*[#  44]
          +0.045*[#  46]+0.045*[#  47]+0.045*[#  48]+0.045*[#  50]+0.045*[#  51]
          +0.045*[#  52]+0.018*[#  37]+0.018*[#  41]+0.018*[#  45]+0.018*[#  49]
          +0.003*[#   6]+0.003*[#   7]+0.003*[#   9]+0.003*[#  15]+0.003*[#  16]
          +0.003*[#  18]+0.003*[#  24]+0.003*[#  25]+0.003*[#  27]+0.003*[#  33]
          +0.003*[#  34]+0.003*[#  36]+0.001*[#   5]+0.001*[#   8]+0.001*[#  14]
          +0.001*[#  17]+0.001*[#  23]+0.001*[#  26]+0.001*[#  32]+0.001*[#  35]
          
    |psi|^2 = 0.998
==== e(  28) =     2.66873 eV ==== 
     psi = 0.059*[#  38]+0.059*[#  39]+0.059*[#  40]+0.059*[#  42]+0.059*[#  43]
          +0.059*[#  44]+0.059*[#  46]+0.059*[#  47]+0.059*[#  48]+0.059*[#  50]
          +0.059*[#  51]+0.059*[#  52]+0.043*[#  11]+0.043*[#  13]+0.043*[#  20]
          +0.043*[#  21]+0.043*[#  30]+0.043*[#  31]+0.004*[#   5]+0.004*[#   8]
          +0.003*[#  35]+0.002*[#  15]+0.002*[#  18]+0.002*[#  25]+0.002*[#  27]
          +0.002*[#  33]+0.002*[#  34]+0.002*[#  14]+0.002*[#  23]
    |psi|^2 = 0.998
==== e(  29) =     2.66881 eV ==== 
     psi = 0.059*[#  38]+0.059*[#  39]+0.059*[#  40]+0.059*[#  42]+0.059*[#  43]
          +0.059*[#  44]+0.059*[#  46]+0.059*[#  47]+0.059*[#  48]+0.059*[#  50]
          +0.059*[#  51]+0.059*[#  52]+0.043*[#   2]+0.043*[#   3]+0.043*[#   4]
          +0.043*[#  12]+0.043*[#  22]+0.043*[#  29]+0.004*[#  32]+0.003*[#  17]
          +0.003*[#  26]+0.002*[#   6]+0.002*[#   7]+0.002*[#   9]+0.002*[#  16]
          +0.002*[#  24]+0.002*[#  36]+0.002*[#  14]+0.002*[#  23]+0.001*[#  35]
          +0.001*[#   1]
    |psi|^2 = 0.998
==== e(  30) =     2.77773 eV ==== 
     psi = 0.055*[#  38]+0.055*[#  39]+0.055*[#  40]+0.055*[#  42]+0.055*[#  43]
          +0.055*[#  44]+0.055*[#  46]+0.055*[#  47]+0.055*[#  48]+0.055*[#  50]
          +0.055*[#  51]+0.055*[#  52]+0.027*[#   2]+0.027*[#   3]+0.027*[#   4]
          +0.027*[#  11]+0.027*[#  12]+0.027*[#  13]+0.027*[#  20]+0.027*[#  21]
          +0.027*[#  22]+0.027*[#  29]+0.027*[#  30]+0.027*[#  31]
    |psi|^2 = 0.997
==== e(  31) =     2.77773 eV ==== 
     psi = 0.055*[#  38]+0.055*[#  39]+0.055*[#  40]+0.055*[#  42]+0.055*[#  43]
          +0.055*[#  44]+0.055*[#  46]+0.055*[#  47]+0.055*[#  48]+0.055*[#  50]
          +0.055*[#  51]+0.055*[#  52]+0.027*[#   2]+0.027*[#   3]+0.027*[#   4]
          +0.027*[#  11]+0.027*[#  12]+0.027*[#  13]+0.027*[#  20]+0.027*[#  21]
          +0.027*[#  22]+0.027*[#  29]+0.027*[#  30]+0.027*[#  31]
    |psi|^2 = 0.997
==== e(  32) =     2.88129 eV ==== 
     psi = 0.073*[#   1]+0.073*[#  10]+0.073*[#  19]+0.073*[#  28]+0.046*[#  38]
          +0.046*[#  39]+0.046*[#  40]+0.046*[#  42]+0.046*[#  43]+0.046*[#  44]
          +0.046*[#  46]+0.046*[#  47]+0.046*[#  48]+0.046*[#  50]+0.046*[#  51]
          +0.046*[#  52]+0.026*[#  37]+0.026*[#  41]+0.026*[#  45]+0.026*[#  49]
          +0.003*[#   6]+0.003*[#   7]+0.003*[#   9]+0.003*[#  15]+0.003*[#  16]
          +0.003*[#  18]+0.003*[#  24]+0.003*[#  25]+0.003*[#  27]+0.003*[#  33]
          +0.003*[#  34]+0.003*[#  36]
    |psi|^2 = 0.998
==== e(  33) =     3.49171 eV ==== 
     psi = 0.064*[#  38]+0.064*[#  39]+0.064*[#  40]+0.064*[#  42]+0.064*[#  43]
          +0.064*[#  44]+0.064*[#  46]+0.064*[#  47]+0.064*[#  48]+0.064*[#  50]
          +0.064*[#  51]+0.064*[#  52]+0.017*[#   2]+0.017*[#   3]+0.017*[#   4]
          +0.017*[#  11]+0.017*[#  12]+0.017*[#  13]+0.017*[#  20]+0.017*[#  21]
          +0.017*[#  22]+0.017*[#  29]+0.017*[#  30]+0.017*[#  31]+0.002*[#   6]
          +0.002*[#   7]+0.002*[#   9]+0.002*[#  15]+0.002*[#  16]+0.002*[#  18]
          +0.002*[#  24]+0.002*[#  25]+0.002*[#  27]+0.002*[#  33]+0.002*[#  34]
          +0.002*[#  36]
    |psi|^2 = 0.999
==== e(  34) =     3.49171 eV ==== 
     psi = 0.064*[#  38]+0.064*[#  39]+0.064*[#  40]+0.064*[#  42]+0.064*[#  43]
          +0.064*[#  44]+0.064*[#  46]+0.064*[#  47]+0.064*[#  48]+0.064*[#  50]
          +0.064*[#  51]+0.064*[#  52]+0.017*[#   2]+0.017*[#   3]+0.017*[#   4]
          +0.017*[#  11]+0.017*[#  12]+0.017*[#  13]+0.017*[#  20]+0.017*[#  21]
          +0.017*[#  22]+0.017*[#  29]+0.017*[#  30]+0.017*[#  31]+0.002*[#   6]
          +0.002*[#   7]+0.002*[#   9]+0.002*[#  15]+0.002*[#  16]+0.002*[#  18]
          +0.002*[#  24]+0.002*[#  25]+0.002*[#  27]+0.002*[#  33]+0.002*[#  34]
          +0.002*[#  36]
    |psi|^2 = 0.999
==== e(  35) =     4.14395 eV ==== 
[...]
          +0.037*[#  36]
    |psi|^2 = 0.999
==== e(   2) =    -5.82899 eV ==== 
     psi = 0.177*[#  37]+0.177*[#  41]+0.177*[#  45]+0.177*[#  49]+0.019*[#  10]
          +0.019*[#  19]+0.019*[#  28]+0.013*[#   2]+0.013*[#   3]+0.013*[#   4]
          +0.013*[#  11]+0.013*[#  13]+0.013*[#  20]+0.013*[#  21]+0.013*[#  30]
          +0.013*[#  31]+0.012*[#   6]+0.012*[#   7]+0.012*[#   9]+0.012*[#  15]
          +0.012*[#  18]+0.012*[#  25]+0.012*[#  27]+0.012*[#  33]+0.012*[#  34]
          
    |psi|^2 = 0.999
==== e(   3) =    -5.82899 eV ==== 
     psi = 0.177*[#  37]+0.177*[#  41]+0.177*[#  45]+0.177*[#  49]+0.019*[#  10]
          +0.019*[#  19]+0.019*[#  28]+0.013*[#   2]+0.013*[#   3]+0.013*[#   4]
          +0.013*[#  11]+0.013*[#  13]+0.013*[#  20]+0.013*[#  21]+0.013*[#  30]
          +0.013*[#  31]+0.012*[#   6]+0.012*[#   7]+0.012*[#   9]+0.012*[#  15]
          +0.012*[#  18]+0.012*[#  25]+0.012*[#  27]+0.012*[#  33]+0.012*[#  34]
          
    |psi|^2 = 0.999
==== e(   4) =    -5.82899 eV ==== 
     psi = 0.177*[#  37]+0.177*[#  41]+0.177*[#  45]+0.177*[#  49]+0.019*[#  10]
          +0.019*[#  19]+0.019*[#  28]+0.013*[#   2]+0.013*[#   3]+0.013*[#   4]
          +0.013*[#  11]+0.013*[#  13]+0.013*[#  20]+0.013*[#  21]+0.013*[#  30]
          +0.013*[#  31]+0.012*[#   6]+0.012*[#   7]+0.012*[#   9]+0.012*[#  15]
          +0.012*[#  18]+0.012*[#  25]+0.012*[#  27]+0.012*[#  33]+0.012*[#  34]
          
    |psi|^2 = 0.999
==== e(   5) =    -3.27745 eV ==== 
     psi = 0.142*[#  15]+0.142*[#  18]+0.142*[#  25]+0.142*[#  27]+0.142*[#  33]
          +0.142*[#  34]+0.038*[#  35]+0.029*[#  14]+0.029*[#  23]+0.010*[#  17]
          +0.010*[#  26]+0.003*[#  38]+0.003*[#  39]+0.003*[#  40]+0.003*[#  42]
          +0.003*[#  43]+0.003*[#  44]+0.003*[#  46]+0.003*[#  47]+0.003*[#  48]
          +0.003*[#  50]+0.003*[#  51]+0.003*[#  52]
    |psi|^2 = 0.999
==== e(   6) =    -3.27745 eV ==== 
     psi = 0.142*[#  15]+0.142*[#  18]+0.142*[#  25]+0.142*[#  27]+0.142*[#  33]
          +0.142*[#  34]+0.038*[#  35]+0.029*[#  14]+0.029*[#  23]+0.010*[#  17]
          +0.010*[#  26]+0.003*[#  38]+0.003*[#  39]+0.003*[#  40]+0.003*[#  42]
          +0.003*[#  43]+0.003*[#  44]+0.003*[#  46]+0.003*[#  47]+0.003*[#  48]
          +0.003*[#  50]+0.003*[#  51]+0.003*[#  52]
    |psi|^2 = 0.999
==== e(   7) =    -3.27745 eV ==== 
     psi = 0.142*[#  15]+0.142*[#  18]+0.142*[#  25]+0.142*[#  27]+0.142*[#  33]
          +0.142*[#  34]+0.038*[#  35]+0.029*[#  14]+0.029*[#  23]+0.010*[#  17]
          +0.010*[#  26]+0.003*[#  38]+0.003*[#  39]+0.003*[#  40]+0.003*[#  42]
          +0.003*[#  43]+0.003*[#  44]+0.003*[#  46]+0.003*[#  47]+0.003*[#  48]
          +0.003*[#  50]+0.003*[#  51]+0.003*[#  52]
    |psi|^2 = 0.999
==== e(   8) =    -3.27708 eV ==== 
     psi = 0.284*[#  16]+0.284*[#  24]+0.284*[#  36]+0.056*[#   5]+0.056*[#   8]
          +0.003*[#  38]+0.003*[#  39]+0.003*[#  40]+0.003*[#  42]+0.003*[#  43]
          +0.003*[#  44]+0.003*[#  46]+0.003*[#  47]+0.003*[#  48]+0.003*[#  50]
          +0.003*[#  51]+0.003*[#  52]
    |psi|^2 = 0.999
==== e(   9) =    -3.27708 eV ==== 
     psi = 0.284*[#  16]+0.284*[#  24]+0.284*[#  36]+0.056*[#   5]+0.056*[#   8]
          +0.003*[#  38]+0.003*[#  39]+0.003*[#  40]+0.003*[#  42]+0.003*[#  43]
          +0.003*[#  44]+0.003*[#  46]+0.003*[#  47]+0.003*[#  48]+0.003*[#  50]
          +0.003*[#  51]+0.003*[#  52]
    |psi|^2 = 0.999
==== e(  10) =    -3.27582 eV ==== 
     psi = 0.188*[#   6]+0.188*[#   7]+0.188*[#   9]+0.047*[#  15]+0.047*[#  18]
          +0.047*[#  25]+0.047*[#  27]+0.047*[#  33]+0.047*[#  34]+0.039*[#  32]
          +0.029*[#  17]+0.029*[#  26]+0.010*[#  14]+0.010*[#  23]+0.003*[#  38]
          +0.003*[#  39]+0.003*[#  40]+0.003*[#  42]+0.003*[#  43]+0.003*[#  44]
          +0.003*[#  46]+0.003*[#  47]+0.003*[#  48]+0.003*[#  50]+0.003*[#  51]
          +0.003*[#  52]
    |psi|^2 = 0.999
==== e(  11) =    -3.27582 eV ==== 
     psi = 0.188*[#   6]+0.188*[#   7]+0.188*[#   9]+0.047*[#  15]+0.047*[#  18]
          +0.047*[#  25]+0.047*[#  27]+0.047*[#  33]+0.047*[#  34]+0.039*[#  32]
          +0.029*[#  17]+0.029*[#  26]+0.010*[#  14]+0.010*[#  23]+0.003*[#  38]
          +0.003*[#  39]+0.003*[#  40]+0.003*[#  42]+0.003*[#  43]+0.003*[#  44]
          +0.003*[#  46]+0.003*[#  47]+0.003*[#  48]+0.003*[#  50]+0.003*[#  51]
          +0.003*[#  52]
    |psi|^2 = 0.999
==== e(  12) =    -3.27582 eV ==== 
     psi = 0.188*[#   6]+0.188*[#   7]+0.188*[#   9]+0.047*[#  15]+0.047*[#  18]
          +0.047*[#  25]+0.047*[#  27]+0.047*[#  33]+0.047*[#  34]+0.039*[#  32]
          +0.029*[#  17]+0.029*[#  26]+0.010*[#  14]+0.010*[#  23]+0.003*[#  38]
          +0.003*[#  39]+0.003*[#  40]+0.003*[#  42]+0.003*[#  43]+0.003*[#  44]
          +0.003*[#  46]+0.003*[#  47]+0.003*[#  48]+0.003*[#  50]+0.003*[#  51]
          +0.003*[#  52]
    |psi|^2 = 0.999
==== e(  13) =    -3.08277 eV ==== 
     psi = 0.293*[#  35]+0.220*[#  14]+0.220*[#  23]+0.073*[#  17]+0.073*[#  26]
          +0.020*[#  15]+0.020*[#  18]+0.020*[#  25]+0.020*[#  27]+0.020*[#  33]
          +0.020*[#  34]
    |psi|^2 = 0.998
==== e(  14) =    -3.08277 eV ==== 
     psi = 0.293*[#  35]+0.220*[#  14]+0.220*[#  23]+0.073*[#  17]+0.073*[#  26]
          +0.020*[#  15]+0.020*[#  18]+0.020*[#  25]+0.020*[#  27]+0.020*[#  33]
          +0.020*[#  34]
    |psi|^2 = 0.998
==== e(  15) =    -3.08277 eV ==== 
     psi = 0.293*[#  35]+0.220*[#  14]+0.220*[#  23]+0.073*[#  17]+0.073*[#  26]
          +0.020*[#  15]+0.020*[#  18]+0.020*[#  25]+0.020*[#  27]+0.020*[#  33]
          +0.020*[#  34]
    |psi|^2 = 0.998
==== e(  16) =    -3.08260 eV ==== 
     psi = 0.292*[#  32]+0.219*[#  17]+0.219*[#  26]+0.073*[#  14]+0.073*[#  23]
          +0.027*[#   6]+0.027*[#   7]+0.027*[#   9]+0.007*[#  15]+0.007*[#  18]
          +0.007*[#  25]+0.007*[#  27]+0.007*[#  33]+0.007*[#  34]
    |psi|^2 = 0.998
==== e(  17) =    -3.08260 eV ==== 
     psi = 0.292*[#  32]+0.219*[#  17]+0.219*[#  26]+0.073*[#  14]+0.073*[#  23]
          +0.027*[#   6]+0.027*[#   7]+0.027*[#   9]+0.007*[#  15]+0.007*[#  18]
          +0.007*[#  25]+0.007*[#  27]+0.007*[#  33]+0.007*[#  34]
    |psi|^2 = 0.998
==== e(  18) =    -3.08260 eV ==== 
     psi = 0.292*[#  32]+0.219*[#  17]+0.219*[#  26]+0.073*[#  14]+0.073*[#  23]
          +0.027*[#   6]+0.027*[#   7]+0.027*[#   9]+0.007*[#  15]+0.007*[#  18]
          +0.007*[#  25]+0.007*[#  27]+0.007*[#  33]+0.007*[#  34]
    |psi|^2 = 0.998
==== e(  19) =    -3.08028 eV ==== 
     psi = 0.441*[#   5]+0.441*[#   8]+0.039*[#  16]+0.039*[#  24]+0.039*[#  36]
          
    |psi|^2 = 0.998
==== e(  20) =    -3.08028 eV ==== 
     psi = 0.441*[#   5]+0.441*[#   8]+0.039*[#  16]+0.039*[#  24]+0.039*[#  36]
          
    |psi|^2 = 0.998
==== e(  21) =    -2.76114 eV ==== 
     psi = 0.294*[#  16]+0.294*[#  24]+0.294*[#  36]+0.018*[#  37]+0.018*[#  41]
          +0.018*[#  45]+0.018*[#  49]+0.013*[#   1]+0.009*[#  12]+0.009*[#  22]
          +0.009*[#  29]
    |psi|^2 = 0.999
==== e(  22) =    -2.76034 eV ==== 
     psi = 0.099*[#   6]+0.099*[#   7]+0.099*[#   9]+0.098*[#  15]+0.098*[#  18]
          +0.098*[#  25]+0.098*[#  27]+0.098*[#  33]+0.098*[#  34]+0.018*[#  37]
          +0.018*[#  41]+0.018*[#  45]+0.018*[#  49]+0.005*[#  10]+0.005*[#  19]
          +0.005*[#  28]+0.003*[#   2]+0.003*[#   3]+0.003*[#   4]+0.003*[#  11]
          +0.003*[#  13]+0.003*[#  20]+0.003*[#  21]+0.003*[#  30]+0.003*[#  31]
          
    |psi|^2 = 0.999
==== e(  23) =    -2.76034 eV ==== 
     psi = 0.099*[#   6]+0.099*[#   7]+0.099*[#   9]+0.098*[#  15]+0.098*[#  18]
          +0.098*[#  25]+0.098*[#  27]+0.098*[#  33]+0.098*[#  34]+0.018*[#  37]
          +0.018*[#  41]+0.018*[#  45]+0.018*[#  49]+0.005*[#  10]+0.005*[#  19]
          +0.005*[#  28]+0.003*[#   2]+0.003*[#   3]+0.003*[#   4]+0.003*[#  11]
          +0.003*[#  13]+0.003*[#  20]+0.003*[#  21]+0.003*[#  30]+0.003*[#  31]
          
    |psi|^2 = 0.999
==== e(  24) =    -2.76034 eV ==== 
     psi = 0.099*[#   6]+0.099*[#   7]+0.099*[#   9]+0.098*[#  15]+0.098*[#  18]
          +0.098*[#  25]+0.098*[#  27]+0.098*[#  33]+0.098*[#  34]+0.018*[#  37]
          +0.018*[#  41]+0.018*[#  45]+0.018*[#  49]+0.005*[#  10]+0.005*[#  19]
          +0.005*[#  28]+0.003*[#   2]+0.003*[#   3]+0.003*[#   4]+0.003*[#  11]
          +0.003*[#  13]+0.003*[#  20]+0.003*[#  21]+0.003*[#  30]+0.003*[#  31]
          
    |psi|^2 = 0.999
==== e(  25) =     0.54504 eV ==== 
     psi = 0.097*[#  10]+0.097*[#  19]+0.097*[#  28]+0.046*[#  38]+0.046*[#  39]
          +0.046*[#  40]+0.046*[#  42]+0.046*[#  43]+0.046*[#  44]+0.046*[#  46]
          +0.046*[#  47]+0.046*[#  48]+0.046*[#  50]+0.046*[#  51]+0.046*[#  52]
          +0.017*[#   2]+0.017*[#   3]+0.017*[#   4]+0.017*[#  11]+0.017*[#  13]
          +0.017*[#  20]+0.017*[#  21]+0.017*[#  30]+0.017*[#  31]
    |psi|^2 = 0.994
==== e(  26) =     0.54504 eV ==== 
     psi = 0.097*[#  10]+0.097*[#  19]+0.097*[#  28]+0.046*[#  38]+0.046*[#  39]
          +0.046*[#  40]+0.046*[#  42]+0.046*[#  43]+0.046*[#  44]+0.046*[#  46]
          +0.046*[#  47]+0.046*[#  48]+0.046*[#  50]+0.046*[#  51]+0.046*[#  52]
          +0.017*[#   2]+0.017*[#   3]+0.017*[#   4]+0.017*[#  11]+0.017*[#  13]
          +0.017*[#  20]+0.017*[#  21]+0.017*[#  30]+0.017*[#  31]
    |psi|^2 = 0.994
==== e(  27) =     0.54504 eV ==== 
     psi = 0.097*[#  10]+0.097*[#  19]+0.097*[#  28]+0.046*[#  38]+0.046*[#  39]
          +0.046*[#  40]+0.046*[#  42]+0.046*[#  43]+0.046*[#  44]+0.046*[#  46]
          +0.046*[#  47]+0.046*[#  48]+0.046*[#  50]+0.046*[#  51]+0.046*[#  52]
          +0.017*[#   2]+0.017*[#   3]+0.017*[#   4]+0.017*[#  11]+0.017*[#  13]
          +0.017*[#  20]+0.017*[#  21]+0.017*[#  30]+0.017*[#  31]
    |psi|^2 = 0.994
==== e(  28) =     0.54554 eV ==== 
     psi = 0.290*[#   1]+0.050*[#  12]+0.050*[#  22]+0.050*[#  29]+0.046*[#  38]
          +0.046*[#  39]+0.046*[#  40]+0.046*[#  42]+0.046*[#  43]+0.046*[#  44]
          +0.046*[#  46]+0.046*[#  47]+0.046*[#  48]+0.046*[#  50]+0.046*[#  51]
          +0.046*[#  52]
    |psi|^2 = 0.994
==== e(  29) =     4.09517 eV ==== 
     psi = 0.070*[#  38]+0.070*[#  39]+0.070*[#  40]+0.070*[#  42]+0.070*[#  43]
          +0.070*[#  44]+0.070*[#  46]+0.070*[#  47]+0.070*[#  48]+0.070*[#  50]
          +0.070*[#  51]+0.070*[#  52]+0.043*[#  12]+0.043*[#  22]+0.043*[#  29]
          +0.009*[#  16]+0.009*[#  24]+0.009*[#  36]+0.002*[#   5]+0.002*[#   8]
          
    |psi|^2 = 0.999
==== e(  30) =     4.09517 eV ==== 
     psi = 0.070*[#  38]+0.070*[#  39]+0.070*[#  40]+0.070*[#  42]+0.070*[#  43]
          +0.070*[#  44]+0.070*[#  46]+0.070*[#  47]+0.070*[#  48]+0.070*[#  50]
          +0.070*[#  51]+0.070*[#  52]+0.043*[#  12]+0.043*[#  22]+0.043*[#  29]
          +0.009*[#  16]+0.009*[#  24]+0.009*[#  36]+0.002*[#   5]+0.002*[#   8]
          
    |psi|^2 = 0.999
==== e(  31) =     4.09521 eV ==== 
     psi = 0.070*[#  38]+0.070*[#  39]+0.070*[#  40]+0.070*[#  42]+0.070*[#  43]
          +0.070*[#  44]+0.070*[#  46]+0.070*[#  47]+0.070*[#  48]+0.070*[#  50]
          +0.070*[#  51]+0.070*[#  52]+0.021*[#  11]+0.021*[#  13]+0.021*[#  20]
          +0.021*[#  21]+0.021*[#  30]+0.021*[#  31]+0.005*[#  15]+0.005*[#  18]
          +0.005*[#  25]+0.005*[#  27]+0.005*[#  33]+0.005*[#  34]+0.002*[#  35]
          +0.001*[#  14]+0.001*[#  23]
    |psi|^2 = 0.999
==== e(  32) =     4.09521 eV ==== 
     psi = 0.070*[#  38]+0.070*[#  39]+0.070*[#  40]+0.070*[#  42]+0.070*[#  43]
          +0.070*[#  44]+0.070*[#  46]+0.070*[#  47]+0.070*[#  48]+0.070*[#  50]
          +0.070*[#  51]+0.070*[#  52]+0.021*[#  11]+0.021*[#  13]+0.021*[#  20]
          +0.021*[#  21]+0.021*[#  30]+0.021*[#  31]+0.005*[#  15]+0.005*[#  18]
          +0.005*[#  25]+0.005*[#  27]+0.005*[#  33]+0.005*[#  34]+0.002*[#  35]
          +0.001*[#  14]+0.001*[#  23]
    |psi|^2 = 0.999
==== e(  33) =     4.09521 eV ==== 
     psi = 0.070*[#  38]+0.070*[#  39]+0.070*[#  40]+0.070*[#  42]+0.070*[#  43]
          +0.070*[#  44]+0.070*[#  46]+0.070*[#  47]+0.070*[#  48]+0.070*[#  50]
          +0.070*[#  51]+0.070*[#  52]+0.021*[#  11]+0.021*[#  13]+0.021*[#  20]
          +0.021*[#  21]+0.021*[#  30]+0.021*[#  31]+0.005*[#  15]+0.005*[#  18]
          +0.005*[#  25]+0.005*[#  27]+0.005*[#  33]+0.005*[#  34]+0.002*[#  35]
          +0.001*[#  14]+0.001*[#  23]
    |psi|^2 = 0.999
==== e(  34) =     4.09547 eV ==== 
     psi = 0.070*[#  38]+0.070*[#  39]+0.070*[#  40]+0.070*[#  42]+0.070*[#  43]
          +0.070*[#  44]+0.070*[#  46]+0.070*[#  47]+0.070*[#  48]+0.070*[#  50]
          +0.070*[#  51]+0.070*[#  52]+0.028*[#   2]+0.028*[#   3]+0.028*[#   4]
          +0.007*[#  11]+0.007*[#  13]+0.007*[#  20]+0.007*[#  21]+0.007*[#  30]
          +0.007*[#  31]+0.006*[#   6]+0.006*[#   7]+0.006*[#   9]+0.002*[#  15]
          +0.002*[#  18]+0.002*[#  25]+0.002*[#  27]+0.002*[#  32]+0.002*[#  33]
          +0.002*[#  34]+0.001*[#  17]+0.001*[#  26]
    |psi|^2 = 0.999
==== e(  35) =     4.09547 eV ==== 
     psi = 0.070*[#  38]+0.070*[#  39]+0.070*[#  40]+0.070*[#  42]+0.070*[#  43]
          +0.070*[#  44]+0.070*[#  46]+0.070*[#  47]+0.070*[#  48]+0.070*[#  50]
          +0.070*[#  51]+0.070*[#  52]+0.028*[#   2]+0.028*[#   3]+0.028*[#   4]
          +0.007*[#  11]+0.007*[#  13]+0.007*[#  20]+0.007*[#  21]+0.007*[#  30]
          +0.007*[#  31]+0.006*[#   6]+0.006*[#   7]+0.006*[#   9]+0.002*[#  15]
          +0.002*[#  18]+0.002*[#  25]+0.002*[#  27]+0.002*[#  32]+0.002*[#  33]
          +0.002*[#  34]+0.001*[#  17]+0.001*[#  26]
    |psi|^2 = 0.999
==== e(  36) =     4.09547 eV ==== 
     psi = 0.070*[#  38]+0.070*[#  39]+0.070*[#  40]+0.070*[#  42]+0.070*[#  43]
          +0.070*[#  44]+0.070*[#  46]+0.070*[#  47]+0.070*[#  48]+0.070*[#  50]
          +0.070*[#  51]+0.070*[#  52]+0.028*[#   2]+0.028*[#   3]+0.028*[#   4]
          +0.007*[#  11]+0.007*[#  13]+0.007*[#  20]+0.007*[#  21]+0.007*[#  30]
          +0.007*[#  31]+0.006*[#   6]+0.006*[#   7]+0.006*[#   9]+0.002*[#  15]
          +0.002*[#  18]+0.002*[#  25]+0.002*[#  27]+0.002*[#  32]+0.002*[#  33]
          +0.002*[#  34]+0.001*[#  17]+0.001*[#  26]
    |psi|^2 = 0.999
==== e(  37) =     6.62845 eV ==== 
     psi = 0.153*[#  10]+0.153*[#  19]+0.153*[#  28]+0.040*[#  37]+0.040*[#  41]
          +0.040*[#  45]+0.040*[#  49]+0.030*[#   2]+0.030*[#   3]+0.030*[#   4]
          +0.030*[#  11]+0.030*[#  13]+0.030*[#  20]+0.030*[#  21]+0.030*[#  30]
          +0.030*[#  31]+0.006*[#  38]+0.006*[#  39]+0.006*[#  40]+0.006*[#  42]
          +0.006*[#  43]+0.006*[#  44]+0.006*[#  46]+0.006*[#  47]+0.006*[#  48]
          +0.006*[#  50]+0.006*[#  51]+0.006*[#  52]
    |psi|^2 = 0.963
==== e(  38) =     6.62845 eV ==== 
     psi = 0.153*[#  10]+0.153*[#  19]+0.153*[#  28]+0.040*[#  37]+0.040*[#  41]
          +0.040*[#  45]+0.040*[#  49]+0.030*[#   2]+0.030*[#   3]+0.030*[#   4]
          +0.030*[#  11]+0.030*[#  13]+0.030*[#  20]+0.030*[#  21]+0.030*[#  30]
          +0.030*[#  31]+0.006*[#  38]+0.006*[#  39]+0.006*[#  40]+0.006*[#  42]
          +0.006*[#  43]+0.006*[#  44]+0.006*[#  46]+0.006*[#  47]+0.006*[#  48]
          +0.006*[#  50]+0.006*[#  51]+0.006*[#  52]
    |psi|^2 = 0.963
==== e(  39) =     6.62845 eV ==== 
     psi = 0.153*[#  10]+0.153*[#  19]+0.153*[#  28]+0.040*[#  37]+0.040*[#  41]
          +0.040*[#  45]+0.040*[#  49]+0.030*[#   2]+0.030*[#   3]+0.030*[#   4]
          +0.030*[#  11]+0.030*[#  13]+0.030*[#  20]+0.030*[#  21]+0.030*[#  30]
          +0.030*[#  31]+0.006*[#  38]+0.006*[#  39]+0.006*[#  40]+0.006*[#  42]
          +0.006*[#  43]+0.006*[#  44]+0.006*[#  46]+0.006*[#  47]+0.006*[#  48]
          +0.006*[#  50]+0.006*[#  51]+0.006*[#  52]
    |psi|^2 = 0.963
==== e(  40) =     6.62895 eV ==== 
     psi = 0.460*[#   1]+0.090*[#  12]+0.090*[#  22]+0.090*[#  29]+0.040*[#  37]
          +0.040*[#  41]+0.040*[#  45]+0.040*[#  49]+0.006*[#  38]+0.006*[#  39]
          +0.006*[#  40]+0.006*[#  42]+0.006*[#  43]+0.006*[#  44]+0.006*[#  46]
          +0.006*[#  47]+0.006*[#  48]+0.006*[#  50]+0.006*[#  51]+0.006*[#  52]
          
    |psi|^2 = 0.963
==== e(  41) =    10.04616 eV ==== 
     psi = 0.110*[#  11]+0.110*[#  13]+0.110*[#  20]+0.110*[#  21]+0.110*[#  30]
          +0.110*[#  31]+0.008*[#  38]+0.008*[#  39]+0.008*[#  40]+0.008*[#  42]
          +0.008*[#  43]+0.008*[#  44]+0.008*[#  46]+0.008*[#  47]+0.008*[#  48]
          +0.008*[#  50]+0.008*[#  51]+0.008*[#  52]+0.006*[#  12]+0.006*[#  22]
          +0.006*[#  29]
    |psi|^2 = 0.783
==== e(  42) =    10.04617 eV ==== 
     psi = 0.108*[#  11]+0.108*[#  13]+0.108*[#  20]+0.108*[#  21]+0.108*[#  30]
          +0.108*[#  31]+0.008*[#  38]+0.008*[#  39]+0.008*[#  40]+0.008*[#  42]
          +0.008*[#  43]+0.008*[#  44]+0.008*[#  46]+0.008*[#  47]+0.008*[#  48]
          +0.008*[#  50]+0.008*[#  51]+0.008*[#  52]+0.006*[#   2]+0.006*[#   3]
          +0.006*[#   4]+0.004*[#  12]+0.004*[#  22]+0.004*[#  29]
    |psi|^2 = 0.783
==== e(  43) =    10.04623 eV ==== 
     psi = 0.138*[#  12]+0.138*[#  22]+0.138*[#  29]+0.042*[#  11]+0.042*[#  13]
          +0.042*[#  20]+0.042*[#  21]+0.042*[#  30]+0.042*[#  31]+0.008*[#  38]
          +0.008*[#  39]+0.008*[#  40]+0.008*[#  42]+0.008*[#  43]+0.008*[#  44]
          +0.008*[#  46]+0.008*[#  47]+0.008*[#  48]+0.008*[#  50]+0.008*[#  51]
          +0.008*[#  52]+0.004*[#   2]+0.004*[#   3]+0.004*[#   4]
    |psi|^2 = 0.783

Lowdin Charges: 

     Atom #   1: total charge =  12.0814, s =  0.8555, 
     Atom #   1: total charge =  12.0814, p =  1.2653, pz=  0.4218, px=  0.4218, py=  0.4218, 
     Atom #   1: total charge =  12.0814, d =  9.9605, dz2=  1.9951, dxz=  1.9901, dyz=  1.9901, dx2-y2=  1.9951, dxy=  1.9901, 
     Atom #   2: total charge =  12.0819, s =  0.8557, 
     Atom #   2: total charge =  12.0819, p =  1.2656, pz=  0.4219, px=  0.4219, py=  0.4219, 
     Atom #   2: total charge =  12.0819, d =  9.9606, dz2=  1.9951, dxz=  1.9901, dyz=  1.9901, dx2-y2=  1.9951, dxy=  1.9901, 
     Atom #   3: total charge =  12.0819, s =  0.8557, 
     Atom #   3: total charge =  12.0819, p =  1.2656, pz=  0.4219, px=  0.4219, py=  0.4219, 
     Atom #   3: total charge =  12.0819, d =  9.9606, dz2=  1.9951, dxz=  1.9901, dyz=  1.9901, dx2-y2=  1.9951, dxy=  1.9901, 
     Atom #   4: total charge =  12.0819, s =  0.8557, 
     Atom #   4: total charge =  12.0819, p =  1.2656, pz=  0.4219, px=  0.4219, py=  0.4219, 
     Atom #   4: total charge =  12.0819, d =  9.9606, dz2=  1.9951, dxz=  1.9901, dyz=  1.9901, dx2-y2=  1.9951, dxy=  1.9901, 
     Atom #   5: total charge =   5.8849, s =  1.6072, 
     Atom #   5: total charge =   5.8849, p =  4.2777, pz=  1.4259, px=  1.4259, py=  1.4259, 
     Atom #   5: total charge =   5.8849, d =  0.0000, dz2=  0.0000, dxz=  0.0000, dyz=  0.0000, dx2-y2=  0.0000, dxy=  0.0000, 
     Atom #   6: total charge =   5.8849, s =  1.6072, 
     Atom #   6: total charge =   5.8849, p =  4.2777, pz=  1.4259, px=  1.4259, py=  1.4259, 
     Atom #   6: total charge =   5.8849, d =  0.0000, dz2=  0.0000, dxz=  0.0000, dyz=  0.0000, dx2-y2=  0.0000, dxy=  0.0000, 
     Atom #   7: total charge =   5.8849, s =  1.6072, 
     Atom #   7: total charge =   5.8849, p =  4.2777, pz=  1.4259, px=  1.4259, py=  1.4259, 
     Atom #   7: total charge =   5.8849, d =  0.0000, dz2=  0.0000, dxz=  0.0000, dyz=  0.0000, dx2-y2=  0.0000, dxy=  0.0000, 
     Atom #   8: total charge =   5.8849, s =  1.6072, 
     Atom #   8: total charge =   5.8849, p =  4.2777, pz=  1.4259, px=  1.4259, py=  1.4259, 
     Atom #   8: total charge =   5.8849, d =  0.0000, dz2=  0.0000, dxz=  0.0000, dyz=  0.0000, dx2-y2=  0.0000, dxy=  0.0000, 
     Spilling Parameter:   0.0019
 
     PROJWFC      :      9.36s CPU     10.29s WALL

 
   This run was terminated on:   0: 2:55  26Sep2024            

=------------------------------------------------------------------------------=
   JOB DONE.
=------------------------------------------------------------------------------=
