
     Program PWSCF v.7.3 starts on 25Sep2024 at 23:25:10 

     This program is part of the open-source Quantum ESPRESSO suite
     for quantum simulation of materials; please cite
         "P. Giannozzi et al., J. Phys.:Condens. Matter 21 395502 (2009);
         "P. Giannozzi et al., J. Phys.:Condens. Matter 29 465901 (2017);
         "P. Giannozzi et al., J. Chem. Phys. 152 154105 (2020);
          URL http://www.quantum-espresso.org", 
     in publications or presentations arising from this work. More details at
     http://www.quantum-espresso.org/quote

     Parallel version (MPI), running on    32 processors

     MPI processes distributed on     1 nodes
     245441 MiB available memory on the printing compute node when the environment starts
 
     Waiting for input...
     Reading input from standard input

     Current dimensions of program PWSCF are:
     Max number of different atomic species (ntypx) = 10
     Max number of k-points (npk) =  40000
     Max angular momentum in pseudopotentials (lmaxx) =  4
     file Cd.pbe-n-kjpaw_psl.1.0.0.UPF: wavefunction(s)  5S 4D renormalized
     file Te.pbe-n-kjpaw_psl.1.0.0.UPF: wavefunction(s)  5S 5P renormalized
     Found identity + (  0.0000 -0.5000 -0.5000) symmetry
     This is a supercell, fractional translations are disabled
     Message from routine setup:
     using ibrav=0 with symmetry is DISCOURAGED, use correct ibrav instead
 
     R & G space division:  proc/nbgrp/npool/nimage =      32
     Subspace diagonalization in iterative solution of the eigenvalue problem:
     a serial algorithm will be used

 
     Parallelization info
     --------------------
     sticks:   dense  smooth     PW     G-vecs:    dense   smooth      PW
     Min         227      91     25                14601     3695     541
     Max         228      92     26                14606     3698     544
     Sum        7289    2917    805               467329   118265   17365
 
     Using Slab Decomposition
 


     bravais-lattice index     =            0
     lattice parameter (alat)  =      12.3477  a.u.
     unit-cell volume          =    1882.6041 (a.u.)^3
     number of atoms/cell      =            8
     number of atomic types    =            2
     number of electrons       =        72.00
     number of Kohn-Sham states=           43
     kinetic-energy cutoff     =      60.0000  Ry
     charge density cutoff     =     600.0000  Ry
     scf convergence threshold =      1.0E-07
     mixing beta               =       0.7000
     number of iterations used =            8  plain     mixing
     Exchange-correlation= SLA  PW   PBX  PBC
                           (   1   4   3   4   0   0   0)

     celldm(1)=  12.347708  celldm(2)=   0.000000  celldm(3)=   0.000000
     celldm(4)=   0.000000  celldm(5)=   0.000000  celldm(6)=   0.000000

     crystal axes: (cart. coord. in units of alat)
               a(1) = (   1.000000   0.000000   0.000000 )  
               a(2) = (   0.000000   1.000000   0.000000 )  
               a(3) = (   0.000000   0.000000   1.000000 )  

     reciprocal axes: (cart. coord. in units 2 pi/alat)
               b(1) = (  1.000000  0.000000  0.000000 )  
               b(2) = (  0.000000  1.000000  0.000000 )  
               b(3) = (  0.000000  0.000000  1.000000 )  


     PseudoPot. # 1 for Cd read from file:
     /opt/ohpc/pub/apps/pslibrary.1.0.0/pbe/PSEUDOPOTENTIALS/Cd.pbe-n-kjpaw_psl.1.0.0.UPF
     MD5 check sum: 2354daa030514246e553ccadb369292c
     Pseudo is Projector augmented-wave + core cor, Zval = 12.0
     Generated using 'atomic' code by A. Dal Corso  v.7.3
     Shape of augmentation charge: PSQ
     Using radial grid of 1239 points,  6 beta functions with: 
                l(1) =   0
                l(2) =   0
                l(3) =   1
                l(4) =   1
                l(5) =   2
                l(6) =   2
     Q(r) pseudized with 0 coefficients 


     PseudoPot. # 2 for Te read from file:
     /opt/ohpc/pub/apps/pslibrary.1.0.0/pbe/PSEUDOPOTENTIALS/Te.pbe-n-kjpaw_psl.1.0.0.UPF
     MD5 check sum: 27e2e91dd7d4317cbbbfc602cf87f408
     Pseudo is Projector augmented-wave + core cor, Zval =  6.0
     Generated using 'atomic' code by A. Dal Corso  v.7.3
     Shape of augmentation charge: PSQ
     Using radial grid of 1245 points,  6 beta functions with: 
                l(1) =   0
                l(2) =   0
                l(3) =   1
                l(4) =   1
                l(5) =   2
                l(6) =   2
     Q(r) pseudized with 0 coefficients 


     atomic species   valence    mass     pseudopotential
     Cd               12.00   112.41100     Cd( 1.00)
     Te                6.00   127.60000     Te( 1.00)

     24 Sym. Ops. (no inversion) found



   Cartesian axes

     site n.     atom                  positions (alat units)
         1        Cd     tau(   1) = (   0.0000000   0.0000000   0.0000000  )
         2        Cd     tau(   2) = (   0.0000000   0.5000000   0.5000000  )
         3        Cd     tau(   3) = (   0.5000000   0.0000000   0.5000000  )
         4        Cd     tau(   4) = (   0.5000000   0.5000000   0.0000000  )
         5        Te     tau(   5) = (   0.2499999   0.2499999   0.2499999  )
         6        Te     tau(   6) = (   0.7500001   0.7500001   0.2499999  )
         7        Te     tau(   7) = (   0.7500001   0.2499999   0.7500001  )
         8        Te     tau(   8) = (   0.2499999   0.7500001   0.7500001  )

     number of k points=    35  Gaussian smearing, width (Ry)=  0.0010
                       cart. coord. in units 2pi/alat
        k(    1) = (   0.0000000   0.0000000   0.0000000), wk =   0.0039062
        k(    2) = (   0.0000000   0.0000000   0.1250000), wk =   0.0234375
        k(    3) = (   0.0000000   0.0000000   0.2500000), wk =   0.0234375
        k(    4) = (   0.0000000   0.0000000   0.3750000), wk =   0.0234375
        k(    5) = (   0.0000000   0.0000000  -0.5000000), wk =   0.0117188
        k(    6) = (   0.0000000   0.1250000   0.1250000), wk =   0.0468750
        k(    7) = (   0.0000000   0.1250000   0.2500000), wk =   0.0937500
        k(    8) = (   0.0000000   0.1250000   0.3750000), wk =   0.0937500
        k(    9) = (   0.0000000   0.1250000  -0.5000000), wk =   0.0468750
        k(   10) = (   0.0000000   0.2500000   0.2500000), wk =   0.0468750
        k(   11) = (   0.0000000   0.2500000   0.3750000), wk =   0.0937500
        k(   12) = (   0.0000000   0.2500000  -0.5000000), wk =   0.0468750
        k(   13) = (   0.0000000   0.3750000   0.3750000), wk =   0.0468750
        k(   14) = (   0.0000000   0.3750000  -0.5000000), wk =   0.0468750
        k(   15) = (   0.0000000  -0.5000000  -0.5000000), wk =   0.0117188
        k(   16) = (   0.1250000   0.1250000   0.1250000), wk =   0.0312500
        k(   17) = (   0.1250000   0.1250000   0.2500000), wk =   0.0937500
        k(   18) = (   0.1250000   0.1250000   0.3750000), wk =   0.0937500
        k(   19) = (   0.1250000   0.1250000  -0.5000000), wk =   0.0468750
        k(   20) = (   0.1250000   0.2500000   0.2500000), wk =   0.0937500
        k(   21) = (   0.1250000   0.2500000   0.3750000), wk =   0.1875000
        k(   22) = (   0.1250000   0.2500000  -0.5000000), wk =   0.0937500
        k(   23) = (   0.1250000   0.3750000   0.3750000), wk =   0.0937500
        k(   24) = (   0.1250000   0.3750000  -0.5000000), wk =   0.0937500
        k(   25) = (   0.1250000  -0.5000000  -0.5000000), wk =   0.0234375
        k(   26) = (   0.2500000   0.2500000   0.2500000), wk =   0.0312500
        k(   27) = (   0.2500000   0.2500000   0.3750000), wk =   0.0937500
        k(   28) = (   0.2500000   0.2500000  -0.5000000), wk =   0.0468750
        k(   29) = (   0.2500000   0.3750000   0.3750000), wk =   0.0937500
        k(   30) = (   0.2500000   0.3750000  -0.5000000), wk =   0.0937500
        k(   31) = (   0.2500000  -0.5000000  -0.5000000), wk =   0.0234375
        k(   32) = (   0.3750000   0.3750000   0.3750000), wk =   0.0312500
        k(   33) = (   0.3750000   0.3750000  -0.5000000), wk =   0.0468750
        k(   34) = (   0.3750000  -0.5000000  -0.5000000), wk =   0.0234375
        k(   35) = (  -0.5000000  -0.5000000  -0.5000000), wk =   0.0039062

     Dense  grid:   467329 G-vectors     FFT dimensions: ( 100, 100, 100)

     Smooth grid:   118265 G-vectors     FFT dimensions: (  64,  64,  64)

     Estimated max dynamical RAM per process >      67.35 MB

     Estimated total dynamical RAM >       2.10 GB

     Initial potential from superposition of free atoms

     starting charge      71.9796, renormalised to      72.0000
     Starting wfcs are   52 randomized atomic wfcs
     Checking if some PAW data can be deallocated... 

     total cpu time spent up to now is        1.0 secs

     Self-consistent Calculation

     iteration #  1     ecut=    60.00 Ry     beta= 0.70
     Davidson diagonalization with overlap
     ethr =  1.00E-02,  avg # of iterations =  3.7

     Threshold (ethr) on eigenvalues was too large:
     Diagonalizing with lowered threshold

     Davidson diagonalization with overlap
     ethr =  1.98E-04,  avg # of iterations =  6.8

     total cpu time spent up to now is        3.7 secs

     total energy              =   -2977.91468573 Ry
     estimated scf accuracy    <       0.15842151 Ry

     iteration #  2     ecut=    60.00 Ry     beta= 0.70
     Davidson diagonalization with overlap
     ethr =  2.20E-04,  avg # of iterations =  3.1

     total cpu time spent up to now is        5.0 secs

     total energy              =   -2977.95654886 Ry
     estimated scf accuracy    <       0.03428303 Ry

     iteration #  3     ecut=    60.00 Ry     beta= 0.70
     Davidson diagonalization with overlap
     ethr =  4.76E-05,  avg # of iterations =  4.9

     total cpu time spent up to now is        6.5 secs

     total energy              =   -2977.96545416 Ry
     estimated scf accuracy    <       0.00124115 Ry

     iteration #  4     ecut=    60.00 Ry     beta= 0.70
     Davidson diagonalization with overlap
     c_bands:  3 eigenvalues not converged
     c_bands:  3 eigenvalues not converged
     c_bands:  1 eigenvalues not converged
     c_bands:  1 eigenvalues not converged
     c_bands:  1 eigenvalues not converged
     c_bands:  1 eigenvalues not converged
     c_bands:  3 eigenvalues not converged
     ethr =  1.72E-06,  avg # of iterations = 13.9

     total cpu time spent up to now is        8.8 secs

     total energy              =   -2977.96634284 Ry
     estimated scf accuracy    <       0.00021588 Ry

     iteration #  5     ecut=    60.00 Ry     beta= 0.70
     Davidson diagonalization with overlap
     c_bands:  1 eigenvalues not converged
     c_bands:  1 eigenvalues not converged
     ethr =  3.00E-07,  avg # of iterations =  3.9

     total cpu time spent up to now is       10.2 secs

     total energy              =   -2977.96639592 Ry
     estimated scf accuracy    <       0.00000951 Ry

     iteration #  6     ecut=    60.00 Ry     beta= 0.70
     Davidson diagonalization with overlap
     c_bands:  1 eigenvalues not converged
     ethr =  1.32E-08,  avg # of iterations =  6.4

     total cpu time spent up to now is       11.9 secs

     total energy              =   -2977.96640389 Ry
     estimated scf accuracy    <       0.00000613 Ry

     iteration #  7     ecut=    60.00 Ry     beta= 0.70
     Davidson diagonalization with overlap
     ethr =  8.51E-09,  avg # of iterations =  2.4

     total cpu time spent up to now is       13.0 secs

     End of self-consistent calculation

          k = 0.0000 0.0000 0.0000 ( 14771 PWs)   bands (ev):

    -6.2057  -5.7148  -5.7148  -5.7148  -3.3366  -3.3366  -3.3366  -3.1876
    -3.1871  -3.1871  -3.1830  -3.1830  -3.1830  -3.1824  -3.1824  -3.1824
    -3.0919  -3.0919  -3.0615  -3.0611  -3.0611  -2.6320  -2.6320  -2.6320
     0.6435   0.6435   0.6438   3.0506   3.0506   3.0506   3.0506   3.0506
     3.0506   4.8358   4.8358   4.8358   5.5319   7.4970   7.4971   7.4971
     7.5077   7.5078   7.5078

          k = 0.0000 0.0000 0.1250 ( 14783 PWs)   bands (ev):

    -6.1866  -5.7324  -5.7150  -5.7150  -3.3313  -3.3313  -3.3255  -3.1985
    -3.1984  -3.1894  -3.1894  -3.1887  -3.1887  -3.1848  -3.1680  -3.1678
    -3.0936  -3.0907  -3.0639  -3.0636  -3.0624  -2.6837  -2.6205  -2.6205
     0.6591   0.6593   0.7691   2.9815   2.9815   2.9997   2.9997   3.1020
     3.1020   4.3189   4.7368   4.7368   6.0615   7.4514   7.6483   7.6767
     7.6767   7.6786   7.6787

          k = 0.0000 0.0000 0.2500 ( 14774 PWs)   bands (ev):

    -6.1321  -5.7833  -5.7156  -5.7156  -3.3161  -3.3161  -3.2913  -3.2076
    -3.2075  -3.2074  -3.2074  -3.2029  -3.2029  -3.1785  -3.1486  -3.1485
    -3.0978  -3.0874  -3.0712  -3.0709  -3.0657  -2.8098  -2.5934  -2.5934
     0.6991   0.6994   1.1137   2.8216   2.8216   2.8842   2.8842   3.2527
     3.2527   3.5913   4.4794   4.4794   6.8033   7.5026   7.8587   8.1249
     8.1249   8.1833   8.1837

          k = 0.0000 0.0000 0.3750 ( 14750 PWs)   bands (ev):

    -6.0507  -5.8612  -5.7161  -5.7161  -3.2925  -3.2925  -3.2352  -3.2338
    -3.2338  -3.2160  -3.2160  -3.2129  -3.2128  -3.1725  -3.1295  -3.1294
    -3.0979  -3.0825  -3.0820  -3.0817  -3.0707  -2.9537  -2.5672  -2.5672
     0.7433   0.7435   1.6135   2.6684   2.6684   2.7773   2.7773   2.8808
     3.4913   3.4913   4.1435   4.1435   7.4393   7.6404   8.0595   8.4620
     8.6899   8.6900   8.9157

          k = 0.0000 0.0000-0.5000 ( 14718 PWs)   bands (ev):

    -5.9553  -5.9553  -5.7163  -5.7163  -3.2640  -3.2640  -3.2635  -3.2635
    -3.2211  -3.2211  -3.2147  -3.2145  -3.1826  -3.1825  -3.1189  -3.1187
    -3.0899  -3.0894  -3.0768  -3.0763  -3.0631  -3.0631  -2.5565  -2.5565
     0.7630   0.7633   2.2142   2.2142   2.6061   2.6061   2.7352   2.7352
     3.7984   3.7984   3.7985   3.7985   7.7404   7.7406   8.1898   8.1898
     9.0073   9.0074   9.5310

          k = 0.0000 0.1250 0.1250 ( 14773 PWs)   bands (ev):

    -6.1682  -5.7319  -5.7319  -5.7159  -3.3309  -3.3266  -3.3090  -3.2070
    -3.2015  -3.2015  -3.1956  -3.1951  -3.1887  -3.1689  -3.1687  -3.1620
    -3.0939  -3.0909  -3.0660  -3.0647  -3.0645  -2.6700  -2.6700  -2.6114
     0.6736   0.7742   0.7744   2.7742   3.0198   3.0198   3.0712   3.0712
     3.1307   3.9389   4.6346   4.7938   6.2946   7.5689   7.6366   7.6366
     7.8086   7.8086   8.0904

          k = 0.0000 0.1250 0.2500 ( 14784 PWs)   bands (ev):

    -6.1157  -5.7807  -5.7304  -5.7182  -3.3192  -3.3127  -3.2698  -3.2175
    -3.2156  -3.2124  -3.2113  -3.2090  -3.1994  -3.1669  -3.1487  -3.1453
    -3.0973  -3.0879  -3.0726  -3.0711  -3.0672  -2.7922  -2.6365  -2.5912
     0.7106   0.7856   1.0901   2.5712   2.8236   3.0090   3.1474   3.1563
     3.2560   3.3245   4.3711   4.6113   6.8458   7.6892   7.8038   7.9999
     8.1182   8.2631   8.7042

          k = 0.0000 0.1250 0.3750 ( 14784 PWs)   bands (ev):

    -6.0374  -5.8554  -5.7280  -5.7214  -3.2977  -3.2911  -3.2409  -3.2365
    -3.2250  -3.2217  -3.2164  -3.2111  -3.2108  -3.1615  -3.1291  -3.1271
    -3.0963  -3.0827  -3.0825  -3.0812  -3.0717  -2.9349  -2.6003  -2.5754
     0.7538   0.7929   1.5470   2.4578   2.6132   2.6945   2.9740   3.0782
     3.3851   3.5358   4.0313   4.2674   7.4342   7.8047   8.1838   8.3081
     8.6465   8.6598   8.9756

          k = 0.0000 0.1250-0.5000 ( 14756 PWs)   bands (ev):

    -5.9457  -5.9457  -5.7249  -5.7249  -3.2702  -3.2701  -3.2645  -3.2643
    -3.2273  -3.2272  -3.2166  -3.2165  -3.1654  -3.1652  -3.1178  -3.1176
    -3.0893  -3.0888  -3.0779  -3.0773  -3.0511  -3.0510  -2.5772  -2.5772
     0.7840   0.7842   2.0932   2.0932   2.4741   2.4741   3.0011   3.0011
     3.6868   3.6869   3.8863   3.8863   7.8053   7.8056   8.3491   8.3492
     8.8028   8.8030   9.6321

          k = 0.0000 0.2500 0.2500 ( 14802 PWs)   bands (ev):

    -6.0690  -5.7734  -5.7734  -5.7256  -3.3145  -3.3026  -3.2288  -3.2273
    -3.2268  -3.2224  -3.2223  -3.2203  -3.2061  -3.1467  -3.1464  -3.1341
    -3.0982  -3.0860  -3.0775  -3.0723  -3.0721  -2.7465  -2.7465  -2.5904
     0.7421   1.0257   1.0258   2.3863   2.8272   2.9226   2.9227   3.2771
     3.2772   3.3573   4.0967   4.6561   7.0543   7.7459   8.1442   8.1442
     8.4208   8.4208   9.3269

          k = 0.0000 0.2500 0.3750 ( 14784 PWs)   bands (ev):

    -5.9996  -5.8391  -5.7624  -5.7366  -3.2992  -3.2863  -3.2508  -3.2422
    -3.2364  -3.2356  -3.2284  -3.2181  -3.1565  -3.1405  -3.1266  -3.1195
    -3.0960  -3.0850  -3.0806  -3.0756  -3.0752  -2.8825  -2.6889  -2.6030
     0.7901   0.9398   1.3804   2.3058   2.3423   2.6564   3.1255   3.3295
     3.4313   3.6419   3.7516   4.4331   7.4557   8.0013   8.1226   8.5368
     8.6115   9.1355   9.1441

          k = 0.0000 0.2500-0.5000 ( 14756 PWs)   bands (ev):

    -5.9186  -5.9186  -5.7495  -5.7495  -3.2764  -3.2764  -3.2652  -3.2651
    -3.2390  -3.2390  -3.2269  -3.2267  -3.1350  -3.1345  -3.1139  -3.1136
    -3.0888  -3.0883  -3.0822  -3.0817  -3.0079  -3.0077  -2.6369  -2.6368
     0.8562   0.8564   1.8152   1.8152   2.4433   2.4433   3.3985   3.3985
     3.4119   3.4120   4.0537   4.0538   7.8828   7.8829   8.4259   8.4260
     8.8503   8.8504   9.8084

          k = 0.0000 0.3750 0.3750 ( 14766 PWs)   bands (ev):

    -5.9436  -5.8150  -5.8150  -5.7596  -3.2903  -3.2774  -3.2540  -3.2535
    -3.2465  -3.2463  -3.2453  -3.2318  -3.1206  -3.1204  -3.1090  -3.1084
    -3.1009  -3.0899  -3.0825  -3.0824  -3.0305  -2.8079  -2.8078  -2.6543
     0.8668   1.1790   1.1791   1.8857   2.3807   2.8203   2.8204   3.4088
     3.6899   3.7501   3.7502   4.4073   7.5982   7.9380   8.2580   8.2582
     9.3625   9.3625   9.7136

          k = 0.0000 0.3750-0.5000 ( 14786 PWs)   bands (ev):

    -5.8786  -5.8786  -5.7871  -5.7871  -3.2734  -3.2734  -3.2641  -3.2639
    -3.2507  -3.2507  -3.2438  -3.2436  -3.1121  -3.1117  -3.1068  -3.1064
    -3.0910  -3.0905  -3.0892  -3.0887  -2.9302  -2.9300  -2.7264  -2.7264
     0.9978   0.9979   1.5001   1.5001   2.5534   2.5534   3.0820   3.0820
     3.7895   3.7895   4.1478   4.1478   7.8954   7.8955   8.1016   8.1017
     9.6161   9.6162   9.9671

          k = 0.0000-0.5000-0.5000 ( 14836 PWs)   bands (ev):

    -5.8323  -5.8323  -5.8323  -5.8323  -3.2616  -3.2616  -3.2612  -3.2612
    -3.2593  -3.2593  -3.2593  -3.2588  -3.0987  -3.0987  -3.0987  -3.0977
    -3.0976  -3.0975  -3.0975  -3.0967  -2.8305  -2.8303  -2.8303  -2.8302
     1.2163   1.2163   1.2163   1.2165   2.7784   2.7785   2.7785   2.7785
     4.0650   4.0651   4.0651   4.0651   7.9281   7.9281   7.9283   7.9284
    10.0479  10.0480  10.0483

          k = 0.1250 0.1250 0.1250 ( 14813 PWs)   bands (ev):

    -6.1504  -5.7320  -5.7320  -5.7320  -3.3262  -3.3262  -3.2923  -3.2110
    -3.2110  -3.2108  -3.1955  -3.1951  -3.1951  -3.1621  -3.1619  -3.1619
    -3.0926  -3.0926  -3.0668  -3.0664  -3.0664  -2.6586  -2.6585  -2.6585
     0.7764   0.7764   0.7766   2.8427   2.8427   2.8428   3.1797   3.1797
     3.1797   3.6283   4.7050   4.7050   6.4183   7.6020   7.6020   7.6020
     8.1418   8.1418   8.1418

          k = 0.1250 0.1250 0.2500 ( 14777 PWs)   bands (ev):

    -6.1000  -5.7788  -5.7324  -5.7323  -3.3172  -3.3126  -3.2501  -3.2245
    -3.2219  -3.2217  -3.2130  -3.2054  -3.2053  -3.1592  -3.1448  -3.1448
    -3.0963  -3.0889  -3.0725  -3.0723  -3.0685  -2.7763  -2.6315  -2.6314
     0.7803   0.7805   1.0591   2.6525   2.6525   3.0432   3.0769   3.2036
     3.2036   3.3229   4.4713   4.5577   6.8221   7.6939   7.8352   7.8352
     8.2745   8.7365   8.7371

          k = 0.1250 0.1250 0.3750 ( 14765 PWs)   bands (ev):

    -6.0248  -5.8504  -5.7327  -5.7327  -3.2987  -3.2916  -3.2472  -3.2380
    -3.2295  -3.2294  -3.2158  -3.2156  -3.1893  -3.1530  -3.1264  -3.1263
    -3.0936  -3.0835  -3.0818  -3.0815  -3.0723  -2.9170  -2.6050  -2.6050
     0.7822   0.7824   1.4686   2.5040   2.5282   2.5282   3.1635   3.1635
     3.3587   3.5491   4.1613   4.1883   7.3508   7.7973   8.3126   8.3128
     8.4274   8.8667   9.3484

          k = 0.1250 0.1250-0.5000 ( 14742 PWs)   bands (ev):

    -5.9368  -5.9368  -5.7328  -5.7328  -3.2741  -3.2737  -3.2658  -3.2654
    -3.2325  -3.2324  -3.2197  -3.2195  -3.1521  -3.1518  -3.1164  -3.1161
    -3.0886  -3.0881  -3.0778  -3.0773  -3.0386  -3.0385  -2.5942  -2.5942
     0.7823   0.7825   1.9598   1.9598   2.4871   2.4871   3.1376   3.1376
     3.7578   3.7578   3.8386   3.8387   7.7366   7.7368   8.5903   8.5904
     8.6705   8.6705   9.5486

          k = 0.1250 0.2500 0.2500 ( 14772 PWs)   bands (ev):

    -6.0554  -5.7733  -5.7733  -5.7378  -3.3116  -3.3041  -3.2352  -3.2349
    -3.2330  -3.2215  -3.2213  -3.2121  -3.1999  -3.1418  -3.1416  -3.1329
    -3.0965  -3.0876  -3.0766  -3.0729  -3.0727  -2.7356  -2.7355  -2.6225
     0.7693   0.9781   0.9783   2.5089   2.6047   2.8789   2.8789   3.3720
     3.3721   3.3984   4.2617   4.5946   6.9184   7.7686   7.9038   7.9038
     8.8193   8.8194   9.3293

          k = 0.1250 0.2500 0.3750 ( 14771 PWs)   bands (ev):

    -5.9890  -5.8360  -5.7651  -5.7459  -3.2982  -3.2881  -3.2554  -3.2435
    -3.2416  -3.2405  -3.2295  -3.2234  -3.1380  -3.1349  -3.1231  -3.1181
    -3.0922  -3.0835  -3.0804  -3.0757  -3.0752  -2.8674  -2.6859  -2.6235
     0.7693   0.8804   1.2801   2.1143   2.4857   2.7128   3.2020   3.4092
     3.4744   3.6503   3.9310   4.3797   7.2621   7.9047   7.9937   8.2641
     8.9261   9.3345   9.3742

          k = 0.1250 0.2500-0.5000 ( 14762 PWs)   bands (ev):

    -5.9117  -5.9117  -5.7555  -5.7555  -3.2783  -3.2780  -3.2672  -3.2668
    -3.2434  -3.2432  -3.2307  -3.2305  -3.1275  -3.1271  -3.1117  -3.1113
    -3.0876  -3.0872  -3.0807  -3.0802  -2.9939  -2.9937  -2.6448  -2.6447
     0.8037   0.8039   1.6647   1.6647   2.5678   2.5678   3.4557   3.4557
     3.5657   3.5657   4.0136   4.0136   7.6739   7.6741   8.3292   8.3292
     9.0999   9.1000   9.5662

          k = 0.1250 0.3750 0.3750 ( 14780 PWs)   bands (ev):

    -5.9361  -5.8147  -5.8147  -5.7660  -3.2899  -3.2798  -3.2580  -3.2576
    -3.2491  -3.2484  -3.2482  -3.2366  -3.1167  -3.1165  -3.1072  -3.0996
    -3.0986  -3.0878  -3.0815  -3.0814  -3.0199  -2.7978  -2.7977  -2.6630
     0.7959   1.0670   1.0671   1.7056   2.5638   2.9704   2.9704   3.6111
     3.7168   3.7664   3.7665   4.3804   7.3615   7.8914   8.0312   8.0313
     9.4166   9.4168   9.8326

          k = 0.1250 0.3750-0.5000 ( 14790 PWs)   bands (ev):

    -5.8747  -5.8747  -5.7901  -5.7901  -3.2751  -3.2749  -3.2666  -3.2664
    -3.2545  -3.2543  -3.2473  -3.2470  -3.1081  -3.1076  -3.1041  -3.1037
    -3.0893  -3.0888  -3.0870  -3.0865  -2.9166  -2.9164  -2.7243  -2.7243
     0.8946   0.8948   1.3464   1.3465   2.7394   2.7395   3.2774   3.2775
     3.8107   3.8107   4.1358   4.1358   7.6657   7.6658   7.9779   7.9779
     9.6552   9.6560   9.7115

          k = 0.1250-0.5000-0.5000 ( 14784 PWs)   bands (ev):

    -5.8319  -5.8319  -5.8319  -5.8319  -3.2641  -3.2641  -3.2637  -3.2637
    -3.2624  -3.2623  -3.2623  -3.2619  -3.0961  -3.0961  -3.0961  -3.0952
    -3.0948  -3.0948  -3.0948  -3.0939  -2.8209  -2.8206  -2.8206  -2.8206
     1.0781   1.0781   1.0781   1.0783   2.9862   2.9863   2.9863   2.9863
     4.0693   4.0694   4.0694   4.0694   7.7485   7.7485   7.7486   7.7487
     9.8524   9.8525   9.8525

          k = 0.2500 0.2500 0.2500 ( 14790 PWs)   bands (ev):

    -6.0166  -5.7731  -5.7731  -5.7731  -3.3030  -3.3030  -3.2452  -3.2452
    -3.2448  -3.2283  -3.2279  -3.2279  -3.1455  -3.1290  -3.1287  -3.1287
    -3.0917  -3.0917  -3.0756  -3.0753  -3.0753  -2.7092  -2.7092  -2.7092
     0.8677   0.8677   0.8679   2.1725   2.8410   2.8410   2.8411   3.5182
     3.5182   3.5182   4.4269   4.4269   6.7830   7.7967   7.7967   7.7967
     9.3209   9.3210   9.3213

          k = 0.2500 0.2500 0.3750 ( 14762 PWs)   bands (ev):

    -5.9590  -5.8270  -5.7728  -5.7728  -3.2948  -3.2889  -3.2623  -3.2513
    -3.2511  -3.2488  -3.2373  -3.2371  -3.1215  -3.1139  -3.1136  -3.1045
    -3.0856  -3.0810  -3.0806  -3.0762  -3.0560  -2.8266  -2.6829  -2.6829
     0.7628   0.7630   1.0609   1.7335   2.8428   2.8429   3.3063   3.6031
     3.6031   3.7052   4.1935   4.2547   6.9692   7.6979   7.9063   7.9063
     9.3296   9.5287   9.5288

          k = 0.2500 0.2500-0.5000 ( 14744 PWs)   bands (ev):

    -5.8923  -5.8923  -5.7727  -5.7727  -3.2805  -3.2802  -3.2704  -3.2700
    -3.2530  -3.2528  -3.2416  -3.2413  -3.1126  -3.1121  -3.1055  -3.1052
    -3.0856  -3.0852  -3.0800  -3.0796  -2.9491  -2.9488  -2.6720  -2.6719
     0.7208   0.7210   1.3536   1.3537   2.8505   2.8505   3.6252   3.6252
     3.8173   3.8173   3.9400   3.9401   7.3699   7.3701   8.0188   8.0189
     9.4698   9.4817   9.4819

          k = 0.2500 0.3750 0.3750 ( 14784 PWs)   bands (ev):

    -5.9148  -5.8140  -5.8140  -5.7847  -3.2883  -3.2835  -3.2651  -3.2647
    -3.2584  -3.2549  -3.2547  -3.2485  -3.1070  -3.1068  -3.1024  -3.0929
    -3.0882  -3.0836  -3.0801  -3.0800  -2.9790  -2.7730  -2.7729  -2.6925
     0.6872   0.8465   0.8466   1.3533   3.0001   3.2803   3.2803   3.7937
     3.8176   3.8177   3.9859   4.3032   6.9297   7.6224   7.6225   7.6889
     9.5308   9.5309   9.6250

          k = 0.2500 0.3750-0.5000 ( 14796 PWs)   bands (ev):

    -5.8638  -5.8638  -5.7991  -5.7991  -3.2781  -3.2779  -3.2717  -3.2713
    -3.2627  -3.2624  -3.2562  -3.2559  -3.0991  -3.0987  -3.0975  -3.0971
    -3.0857  -3.0852  -3.0832  -3.0827  -2.8780  -2.8778  -2.7236  -2.7236
     0.7116   0.7117   1.0466   1.0467   3.1580   3.1580   3.6772   3.6773
     3.8725   3.8725   4.0979   4.0979   7.2168   7.2169   7.6179   7.6180
     9.6122   9.6148   9.7606

          k = 0.2500-0.5000-0.5000 ( 14804 PWs)   bands (ev):

    -5.8310  -5.8310  -5.8310  -5.8310  -3.2699  -3.2697  -3.2695  -3.2695
    -3.2691  -3.2689  -3.2689  -3.2686  -3.0903  -3.0903  -3.0903  -3.0894
    -3.0891  -3.0891  -3.0891  -3.0882  -2.7969  -2.7967  -2.7967  -2.7966
     0.8210   0.8210   0.8210   0.8212   3.4368   3.4369   3.4369   3.4370
     4.0798   4.0798   4.0799   4.0799   7.3084   7.3084   7.3085   7.3086
     9.8224   9.8225   9.8226

          k = 0.3750 0.3750 0.3750 ( 14790 PWs)   bands (ev):

    -5.8837  -5.8132  -5.8132  -5.8132  -3.2837  -3.2837  -3.2697  -3.2697
    -3.2692  -3.2629  -3.2625  -3.2625  -3.0964  -3.0961  -3.0961  -3.0863
    -3.0863  -3.0810  -3.0807  -3.0807  -2.9076  -2.7475  -2.7474  -2.7474
     0.6662   0.6662   0.6664   1.0188   3.5259   3.5259   3.5259   3.9098
     3.9098   3.9098   4.1864   4.1864   6.6923   7.2912   7.2912   7.2913
     9.6701   9.6702   9.6705

          k = 0.3750 0.3750-0.5000 ( 14778 PWs)   bands (ev):

    -5.8479  -5.8479  -5.8129  -5.8129  -3.2789  -3.2786  -3.2752  -3.2748
    -3.2705  -3.2702  -3.2667  -3.2665  -3.0903  -3.0901  -3.0899  -3.0897
    -3.0834  -3.0829  -3.0819  -3.0815  -2.8240  -2.8239  -2.7367  -2.7366
     0.5991   0.5992   0.7783   0.7784   3.6014   3.6015   3.9732   3.9732
     3.9920   3.9920   4.0479   4.0480   6.8654   6.8655   7.1634   7.1634
     9.7503   9.7513   9.8935

          k = 0.3750-0.5000-0.5000 ( 14796 PWs)   bands (ev):

    -5.8300  -5.8300  -5.8300  -5.8300  -3.2752  -3.2751  -3.2751  -3.2751
    -3.2750  -3.2746  -3.2746  -3.2745  -3.0848  -3.0848  -3.0848  -3.0844
    -3.0844  -3.0844  -3.0839  -3.0835  -2.7718  -2.7716  -2.7716  -2.7716
     0.6189   0.6189   0.6189   0.6191   3.8886   3.8886   3.8886   3.8887
     4.0904   4.0904   4.0905   4.0905   6.8422   6.8422   6.8423   6.8424
     9.9557   9.9559   9.9568

          k =-0.5000-0.5000-0.5000 ( 14832 PWs)   bands (ev):

    -5.8296  -5.8296  -5.8296  -5.8296  -3.2773  -3.2773  -3.2773  -3.2772
    -3.2772  -3.2767  -3.2767  -3.2767  -3.0827  -3.0827  -3.0827  -3.0826
    -3.0826  -3.0826  -3.0818  -3.0818  -2.7611  -2.7608  -2.7608  -2.7608
     0.5448   0.5448   0.5448   0.5449   4.0948   4.0948   4.0948   4.0948
     4.0948   4.0949   4.0949   4.0949   6.6282   6.6282   6.6282   6.6283
    10.0461  10.0462  10.0462

     the Fermi energy is     5.0199 ev

!    total energy              =   -2977.96640527 Ry
     total all-electron energy =    -99114.530466 Ry
     estimated scf accuracy    <       0.00000010 Ry
     smearing contrib. (-TS)   =      -0.00000000 Ry
     internal energy E=F+TS    =   -2977.96640527 Ry

     The total energy is F=E-TS. E is the sum of the following terms:
     one-electron contribution =    -179.04578863 Ry
     hartree contribution      =     145.37128553 Ry
     xc contribution           =    -157.88211673 Ry
     ewald contribution        =    -304.75420621 Ry
     one-center paw contrib.   =   -2481.65557923 Ry

     convergence has been achieved in   7 iterations

     Writing all to output data dir ./out/qe.save/ :
     XML data file, charge density, pseudopotentials, collected wavefunctions
 
     init_run     :      0.62s CPU      0.71s WALL (       1 calls)
     electrons    :     11.53s CPU     12.03s WALL (       1 calls)

     Called by init_run:
     wfcinit      :      0.34s CPU      0.36s WALL (       1 calls)
     potinit      :      0.04s CPU      0.05s WALL (       1 calls)
     hinit0       :      0.03s CPU      0.08s WALL (       1 calls)

     Called by electrons:
     c_bands      :      9.56s CPU      9.73s WALL (       8 calls)
     sum_band     :      1.36s CPU      1.54s WALL (       8 calls)
     v_of_rho     :      0.06s CPU      0.07s WALL (       8 calls)
     newd         :      0.33s CPU      0.41s WALL (       8 calls)
     PAW_pot      :      0.28s CPU      0.29s WALL (       8 calls)
     mix_rho      :      0.01s CPU      0.01s WALL (       8 calls)

     Called by c_bands:
     init_us_2    :      0.08s CPU      0.08s WALL (     595 calls)
     init_us_2:cp :      0.08s CPU      0.08s WALL (     595 calls)
     cegterg      :      8.87s CPU      9.03s WALL (     280 calls)

     Called by *egterg:
     cdiaghg      :      2.02s CPU      2.02s WALL (    1821 calls)
     h_psi        :      5.86s CPU      6.02s WALL (    1891 calls)
     s_psi        :      0.27s CPU      0.27s WALL (    1891 calls)
     g_psi        :      0.02s CPU      0.03s WALL (    1576 calls)

     Called by h_psi:
     h_psi:calbec :      0.47s CPU      0.48s WALL (    1891 calls)
     vloc_psi     :      5.07s CPU      5.22s WALL (    1891 calls)
     add_vuspsi   :      0.28s CPU      0.29s WALL (    1891 calls)

     General routines
     calbec       :      0.57s CPU      0.58s WALL (    2171 calls)
     fft          :      0.04s CPU      0.08s WALL (     103 calls)
     ffts         :      0.00s CPU      0.00s WALL (      16 calls)
     fftw         :      4.84s CPU      4.97s WALL (   93296 calls)
     interpolate  :      0.00s CPU      0.01s WALL (       8 calls)
 
     Parallel routines
 
     PWSCF        :     12.44s CPU     14.83s WALL

 
   This run was terminated on:  23:25:25  25Sep2024            

=------------------------------------------------------------------------------=
   JOB DONE.
=------------------------------------------------------------------------------=
