
     Program PWSCF v.7.3 starts on 21May2025 at 11: 7: 0 

     This program is part of the open-source Quantum ESPRESSO suite
     for quantum simulation of materials; please cite
         "P. Giannozzi et al., J. Phys.:Condens. Matter 21 395502 (2009);
         "P. Giannozzi et al., J. Phys.:Condens. Matter 29 465901 (2017);
         "P. Giannozzi et al., J. Chem. Phys. 152 154105 (2020);
          URL http://www.quantum-espresso.org", 
     in publications or presentations arising from this work. More details at
     http://www.quantum-espresso.org/quote

     Parallel version (MPI), running on    32 processors

     MPI processes distributed on     1 nodes
     245414 MiB available memory on the printing compute node when the environment starts
 
     Reading input from scf.in
     Message from routine read_cards :
     DEPRECATED: no units specified in ATOMIC_POSITIONS card
     Message from routine read_cards :
     ATOMIC_POSITIONS: units set to alat

     Current dimensions of program PWSCF are:
     Max number of different atomic species (ntypx) = 10
     Max number of k-points (npk) =  40000
     Max angular momentum in pseudopotentials (lmaxx) =  4
 
     K-points division:     npool     =       4
     R & G space division:  proc/nbgrp/npool/nimage =       8
     Subspace diagonalization in iterative solution of the eigenvalue problem:
     a serial algorithm will be used

 
     Parallelization info
     --------------------
     sticks:   dense  smooth     PW     G-vecs:    dense   smooth      PW
     Min          45      45     15                  558      558     111
     Max          46      46     16                  560      560     114
     Sum         361     361    121                 4477     4477     893
 
     Using Slab Decomposition
 


     bravais-lattice index     =            2
     lattice parameter (alat)  =       9.2700  a.u.
     unit-cell volume          =     199.1495 (a.u.)^3
     number of atoms/cell      =            1
     number of atomic types    =            1
     number of electrons       =        14.00
     number of Kohn-Sham states=           11
     kinetic-energy cutoff     =      30.0000  Ry
     charge density cutoff     =     120.0000  Ry
     scf convergence threshold =      1.0E-12
     mixing beta               =       0.7000
     number of iterations used =            8  plain     mixing
     Exchange-correlation= PZ
                           (   1   1   0   0   0   0   0)

     celldm(1)=   9.270000  celldm(2)=   0.000000  celldm(3)=   0.000000
     celldm(4)=   0.000000  celldm(5)=   0.000000  celldm(6)=   0.000000

     crystal axes: (cart. coord. in units of alat)
               a(1) = (  -0.500000   0.000000   0.500000 )  
               a(2) = (   0.000000   0.500000   0.500000 )  
               a(3) = (  -0.500000   0.500000   0.000000 )  

     reciprocal axes: (cart. coord. in units 2 pi/alat)
               b(1) = ( -1.000000 -1.000000  1.000000 )  
               b(2) = (  1.000000  1.000000  1.000000 )  
               b(3) = ( -1.000000  1.000000 -1.000000 )  


     PseudoPot. # 1 for Pb read from file:
     ../pseudo/pb_s.UPF
     MD5 check sum: 7774f596943a2055f0d8d19eea6f2ae8
     Pseudo is Norm-conserving, Zval = 14.0
     Generated using "atomic" code by A. Dal Corso  (Quantum ESPRESSO distribution)
     Using radial grid of 1281 points,  2 beta functions with: 
                l(1) =   2
                l(2) =   1

     atomic species   valence    mass     pseudopotential
     Pb               14.00   207.20000     Pb( 1.00)

     48 Sym. Ops., with inversion, found



   Cartesian axes

     site n.     atom                  positions (alat units)
         1        Pb     tau(   1) = (   0.0000000   0.0000000   0.0000000  )

     number of k points=    72  Methfessel-Paxton smearing, width (Ry)=  0.0250
                       cart. coord. in units 2pi/alat
        k(    1) = (   0.0000000   0.0000000   0.0000000), wk =   0.0011574
        k(    2) = (  -0.0833333   0.0833333  -0.0833333), wk =   0.0092593
        k(    3) = (  -0.1666667   0.1666667  -0.1666667), wk =   0.0092593
        k(    4) = (  -0.2500000   0.2500000  -0.2500000), wk =   0.0092593
        k(    5) = (  -0.3333333   0.3333333  -0.3333333), wk =   0.0092593
        k(    6) = (  -0.4166667   0.4166667  -0.4166667), wk =   0.0092593
        k(    7) = (   0.5000000  -0.5000000   0.5000000), wk =   0.0046296
        k(    8) = (   0.0000000   0.1666667   0.0000000), wk =   0.0069444
        k(    9) = (  -0.0833333   0.2500000  -0.0833333), wk =   0.0277778
        k(   10) = (  -0.1666667   0.3333333  -0.1666667), wk =   0.0277778
        k(   11) = (  -0.2500000   0.4166667  -0.2500000), wk =   0.0277778
        k(   12) = (  -0.3333333   0.5000000  -0.3333333), wk =   0.0277778
        k(   13) = (   0.5833333  -0.4166667   0.5833333), wk =   0.0277778
        k(   14) = (   0.5000000  -0.3333333   0.5000000), wk =   0.0277778
        k(   15) = (   0.4166667  -0.2500000   0.4166667), wk =   0.0277778
        k(   16) = (   0.3333333  -0.1666667   0.3333333), wk =   0.0277778
        k(   17) = (   0.2500000  -0.0833333   0.2500000), wk =   0.0277778
        k(   18) = (   0.1666667  -0.0000000   0.1666667), wk =   0.0138889
        k(   19) = (   0.0000000   0.3333333   0.0000000), wk =   0.0069444
        k(   20) = (  -0.0833333   0.4166667  -0.0833333), wk =   0.0277778
        k(   21) = (  -0.1666667   0.5000000  -0.1666667), wk =   0.0277778
        k(   22) = (  -0.2500000   0.5833333  -0.2500000), wk =   0.0277778
        k(   23) = (   0.6666667  -0.3333333   0.6666667), wk =   0.0277778
        k(   24) = (   0.5833333  -0.2500000   0.5833333), wk =   0.0277778
        k(   25) = (   0.5000000  -0.1666667   0.5000000), wk =   0.0277778
        k(   26) = (   0.4166667  -0.0833333   0.4166667), wk =   0.0277778
        k(   27) = (   0.3333333   0.0000000   0.3333333), wk =   0.0138889
        k(   28) = (   0.0000000   0.5000000   0.0000000), wk =   0.0069444
        k(   29) = (  -0.0833333   0.5833333  -0.0833333), wk =   0.0277778
        k(   30) = (  -0.1666667   0.6666667  -0.1666667), wk =   0.0277778
        k(   31) = (   0.7500000  -0.2500000   0.7500000), wk =   0.0277778
        k(   32) = (   0.6666667  -0.1666667   0.6666667), wk =   0.0277778
        k(   33) = (   0.5833333  -0.0833333   0.5833333), wk =   0.0277778
        k(   34) = (   0.5000000   0.0000000   0.5000000), wk =   0.0138889
        k(   35) = (   0.0000000   0.6666667   0.0000000), wk =   0.0069444
        k(   36) = (  -0.0833333   0.7500000  -0.0833333), wk =   0.0277778
        k(   37) = (   0.8333333  -0.1666667   0.8333333), wk =   0.0277778
        k(   38) = (   0.7500000  -0.0833333   0.7500000), wk =   0.0277778
        k(   39) = (   0.6666667  -0.0000000   0.6666667), wk =   0.0138889
        k(   40) = (   0.0000000   0.8333333   0.0000000), wk =   0.0069444
        k(   41) = (   0.9166667  -0.0833333   0.9166667), wk =   0.0277778
        k(   42) = (   0.8333333   0.0000000   0.8333333), wk =   0.0138889
        k(   43) = (   0.0000000  -1.0000000   0.0000000), wk =   0.0034722
        k(   44) = (  -0.1666667   0.3333333   0.0000000), wk =   0.0277778
        k(   45) = (  -0.2500000   0.4166667  -0.0833333), wk =   0.0555556
        k(   46) = (  -0.3333333   0.5000000  -0.1666667), wk =   0.0555556
        k(   47) = (   0.5833333  -0.4166667   0.7500000), wk =   0.0555556
        k(   48) = (   0.5000000  -0.3333333   0.6666667), wk =   0.0277778
        k(   49) = (  -0.1666667   0.5000000   0.0000000), wk =   0.0277778
        k(   50) = (  -0.2500000   0.5833333  -0.0833333), wk =   0.0555556
        k(   51) = (   0.6666667  -0.3333333   0.8333333), wk =   0.0555556
        k(   52) = (   0.5833333  -0.2500000   0.7500000), wk =   0.0555556
        k(   53) = (   0.5000000  -0.1666667   0.6666667), wk =   0.0555556
        k(   54) = (   0.4166667  -0.0833333   0.5833333), wk =   0.0555556
        k(   55) = (   0.3333333   0.0000000   0.5000000), wk =   0.0277778
        k(   56) = (  -0.1666667   0.6666667  -0.0000000), wk =   0.0277778
        k(   57) = (   0.7500000  -0.2500000   0.9166667), wk =   0.0555556
        k(   58) = (   0.6666667  -0.1666667   0.8333333), wk =   0.0555556
        k(   59) = (   0.5833333  -0.0833333   0.7500000), wk =   0.0555556
        k(   60) = (   0.5000000   0.0000000   0.6666667), wk =   0.0277778
        k(   61) = (   0.8333333  -0.1666667   1.0000000), wk =   0.0277778
        k(   62) = (   0.7500000  -0.0833333   0.9166667), wk =   0.0555556
        k(   63) = (   0.6666667   0.0000000   0.8333333), wk =   0.0277778
        k(   64) = (  -0.1666667  -1.0000000  -0.0000000), wk =   0.0138889
        k(   65) = (   0.6666667  -0.3333333   1.0000000), wk =   0.0277778
        k(   66) = (   0.5833333  -0.2500000   0.9166667), wk =   0.0555556
        k(   67) = (   0.5000000  -0.1666667   0.8333333), wk =   0.0277778
        k(   68) = (   0.6666667  -0.1666667   1.0000000), wk =   0.0277778
        k(   69) = (   0.5833333  -0.0833333   0.9166667), wk =   0.0555556
        k(   70) = (   0.5000000   0.0000000   0.8333333), wk =   0.0277778
        k(   71) = (  -0.3333333  -1.0000000   0.0000000), wk =   0.0138889
        k(   72) = (  -0.5000000  -1.0000000   0.0000000), wk =   0.0069444

     Dense  grid:     4477 G-vectors     FFT dimensions: (  24,  24,  24)

     Estimated max dynamical RAM per process >       0.78 MB

     Estimated total dynamical RAM >      21.54 MB

     Initial potential from superposition of free atoms

     starting charge      13.9992, renormalised to      14.0000

     negative rho (up, down):  2.176E-06 0.000E+00
     Starting wfcs are    9 randomized atomic wfcs +    2 random wfcs

     total cpu time spent up to now is        0.2 secs

     Self-consistent Calculation

     iteration #  1     ecut=    30.00 Ry     beta= 0.70
     Davidson diagonalization with overlap
     ethr =  1.00E-02,  avg # of iterations =  4.4

     Threshold (ethr) on eigenvalues was too large:
     Diagonalizing with lowered threshold

     Davidson diagonalization with overlap
     ethr =  3.12E-04,  avg # of iterations =  2.2

     total cpu time spent up to now is        0.3 secs

     total energy              =    -118.65963803 Ry
     estimated scf accuracy    <       0.04436663 Ry

     iteration #  2     ecut=    30.00 Ry     beta= 0.70
     Davidson diagonalization with overlap
     ethr =  3.17E-04,  avg # of iterations =  2.1

     total cpu time spent up to now is        0.3 secs

     total energy              =    -118.66831284 Ry
     estimated scf accuracy    <       0.00301544 Ry

     iteration #  3     ecut=    30.00 Ry     beta= 0.70
     Davidson diagonalization with overlap
     ethr =  2.15E-05,  avg # of iterations =  3.3

     total cpu time spent up to now is        0.3 secs

     total energy              =    -118.66866066 Ry
     estimated scf accuracy    <       0.00018927 Ry

     iteration #  4     ecut=    30.00 Ry     beta= 0.70
     Davidson diagonalization with overlap
     ethr =  1.35E-06,  avg # of iterations =  2.6

     total cpu time spent up to now is        0.4 secs

     total energy              =    -118.66866463 Ry
     estimated scf accuracy    <       0.00000083 Ry

     iteration #  5     ecut=    30.00 Ry     beta= 0.70
     Davidson diagonalization with overlap
     ethr =  5.94E-09,  avg # of iterations =  2.0

     total cpu time spent up to now is        0.4 secs

     total energy              =    -118.66866496 Ry
     estimated scf accuracy    <       0.00000022 Ry

     iteration #  6     ecut=    30.00 Ry     beta= 0.70
     Davidson diagonalization with overlap
     ethr =  1.60E-09,  avg # of iterations =  2.0

     total cpu time spent up to now is        0.4 secs

     total energy              =    -118.66866501 Ry
     estimated scf accuracy    <          6.4E-10 Ry

     iteration #  7     ecut=    30.00 Ry     beta= 0.70
     Davidson diagonalization with overlap
     ethr =  4.55E-12,  avg # of iterations =  2.5

     total cpu time spent up to now is        0.4 secs

     total energy              =    -118.66866501 Ry
     estimated scf accuracy    <          2.7E-10 Ry

     iteration #  8     ecut=    30.00 Ry     beta= 0.70
     Davidson diagonalization with overlap
     ethr =  1.95E-12,  avg # of iterations =  2.0

     total cpu time spent up to now is        0.4 secs

     total energy              =    -118.66866501 Ry
     estimated scf accuracy    <          1.2E-12 Ry

     iteration #  9     ecut=    30.00 Ry     beta= 0.70
     Davidson diagonalization with overlap
     ethr =  1.00E-13,  avg # of iterations =  1.7

     total cpu time spent up to now is        0.5 secs

     End of self-consistent calculation

          k = 0.0000 0.0000 0.0000 (   537 PWs)   bands (ev):

    -4.7663  -4.7663  -4.7663  -4.5822  -4.5822  -0.5412  18.6486  18.6486
    18.6486  22.0263  22.9954

          k =-0.0833 0.0833-0.0833 (   537 PWs)   bands (ev):

    -4.8342  -4.7504  -4.7504  -4.5287  -4.5287  -0.4049  17.2243  18.4945
    18.4945  21.6783  23.6910

          k =-0.1667 0.1667-0.1667 (   552 PWs)   bands (ev):

    -4.9741  -4.8061  -4.8061  -4.7043  -4.7043   0.0055  14.6824  18.1114
    18.1114  21.2717  24.6139

          k =-0.2500 0.2500-0.2500 (   561 PWs)   bands (ev):

    -4.9251  -4.9251  -4.8826  -4.7628  -4.7628   0.6868  12.1194  17.6500
    17.6500  21.0373  23.5967

          k =-0.3333 0.3333-0.3333 (   555 PWs)   bands (ev):

    -4.9135  -4.9135  -4.8334  -4.5874  -4.5874   1.6099   9.7923  17.2363
    17.2363  20.9764  22.6279

          k =-0.4167 0.4167-0.4167 (   556 PWs)   bands (ev):

    -4.9180  -4.9180  -4.8839  -4.5462  -4.5462   2.6413   7.9009  16.9531
    16.9531  21.0841  21.8930

          k = 0.5000-0.5000 0.5000 (   568 PWs)   bands (ev):

    -5.0135  -5.0135  -4.9226  -4.7150  -4.7150   3.2275   7.0249  16.8525
    16.8525  21.3413  21.4252

          k = 0.0000 0.1667 0.0000 (   540 PWs)   bands (ev):

    -4.7860  -4.7860  -4.7820  -4.6013  -4.5646  -0.3596  17.6300  17.9740
    17.9740  21.4200  23.8897

          k =-0.0833 0.2500-0.0833 (   551 PWs)   bands (ev):

    -4.9872  -4.8607  -4.8176  -4.7596  -4.5331  -0.0406  15.5258  17.3812
    17.8720  21.3052  23.2839

          k =-0.1667 0.3333-0.1667 (   557 PWs)   bands (ev):

    -5.0090  -4.8799  -4.8492  -4.7167  -4.6487   0.5509  13.0009  16.8663
    17.4510  21.2811  22.8875

          k =-0.2500 0.4167-0.2500 (   555 PWs)   bands (ev):

    -4.9248  -4.8610  -4.8317  -4.6222  -4.6176   1.3968  10.6187  16.5138
    16.8720  20.8709  22.8857

          k =-0.3333 0.5000-0.3333 (   559 PWs)   bands (ev):

    -4.9663  -4.9098  -4.8896  -4.6173  -4.5602   2.4111   8.5785  16.3042
    16.3736  20.5831  22.6875

          k = 0.5833-0.4167 0.5833 (   560 PWs)   bands (ev):

    -4.9689  -4.8974  -4.8959  -4.6203  -4.5989   3.2400   7.2787  15.8660
    16.4736  20.5596  22.4067

          k = 0.5000-0.3333 0.5000 (   563 PWs)   bands (ev):

    -4.9979  -4.9213  -4.8916  -4.6666  -4.6449   3.0316   7.5835  15.6284
    16.8108  20.7928  22.1954

          k = 0.4167-0.2500 0.4167 (   556 PWs)   bands (ev):

    -4.9080  -4.8928  -4.8648  -4.5992  -4.5619   2.0651   9.2112  15.6254
    17.3436  21.2392  22.1647

          k = 0.3333-0.1667 0.3333 (   553 PWs)   bands (ev):

    -4.9029  -4.8420  -4.8343  -4.6619  -4.5696   1.0895  11.3862  15.8593
    17.9700  21.6627  22.5374

          k = 0.2500-0.0833 0.2500 (   556 PWs)   bands (ev):

    -5.0465  -4.8791  -4.8443  -4.7343  -4.6045   0.3241  13.8086  16.3316
    18.5083  21.8261  23.4454

          k = 0.1667-0.0000 0.1667 (   547 PWs)   bands (ev):

    -4.9635  -4.8434  -4.7405  -4.6329  -4.6183  -0.1772  16.0665  17.2007
    18.7214  21.7493  23.8601

          k = 0.0000 0.3333 0.0000 (   556 PWs)   bands (ev):

    -4.9538  -4.8548  -4.8442  -4.8442  -4.6262   0.1862  15.7418  16.6306
    16.6306  20.4668  21.8057

          k =-0.0833 0.4167-0.0833 (   555 PWs)   bands (ev):

    -5.0464  -4.8855  -4.8118  -4.6594  -4.5583   0.6859  13.8073  16.0171
    16.2411  20.3947  21.0706

          k =-0.1667 0.5000-0.1667 (   556 PWs)   bands (ev):

    -4.9808  -4.8861  -4.7885  -4.6293  -4.6095   1.4436  11.5436  15.5479
    15.6202  19.8860  22.1901

          k =-0.2500 0.5833-0.2500 (   551 PWs)   bands (ev):

    -4.9307  -4.8159  -4.7574  -4.5561  -4.4858   2.3995   9.4873  14.7523
    15.4854  19.5822  23.8026

          k = 0.6667-0.3333 0.6667 (   556 PWs)   bands (ev):

    -4.9660  -4.8054  -4.7781  -4.6123  -4.5993   3.3214   7.9651  14.0698
    15.6332  19.5646  24.2352

          k = 0.5833-0.2500 0.5833 (   559 PWs)   bands (ev):

    -5.0020  -4.8579  -4.8146  -4.6249  -4.6043   3.5027   7.7118  13.6071
    16.0615  19.8153  23.8748

          k = 0.5000-0.1667 0.5000 (   554 PWs)   bands (ev):

    -4.9304  -4.8385  -4.7695  -4.5839  -4.5712   2.7177   8.9492  13.4307
    16.7324  20.3327  23.5977

          k = 0.4167-0.0833 0.4167 (   553 PWs)   bands (ev):

    -4.9059  -4.8598  -4.8375  -4.6186  -4.5004   1.7390  10.8358  13.6023
    17.5413  21.1103  23.3757

          k = 0.3333 0.0000 0.3333 (   554 PWs)   bands (ev):

    -4.9943  -4.8945  -4.8059  -4.7184  -4.4844   0.9106  12.6877  14.4197
    18.2623  22.1406  22.8537

          k = 0.0000 0.5000 0.0000 (   560 PWs)   bands (ev):

    -5.1595  -4.8375  -4.7721  -4.7721  -4.5905   1.0908  13.5897  15.3043
    15.3043  19.6260  19.6625

          k =-0.0833 0.5833-0.0833 (   554 PWs)   bands (ev):

    -5.0792  -4.8681  -4.6756  -4.5879  -4.5316   1.7556  12.0420  14.5133
    14.8245  19.0315  20.0727

          k =-0.1667 0.6667-0.1667 (   551 PWs)   bands (ev):

    -5.0260  -4.8615  -4.6384  -4.5333  -4.4486   2.6290  10.2988  13.4151
    14.6271  18.7838  21.5966

          k = 0.7500-0.2500 0.7500 (   554 PWs)   bands (ev):

    -5.0144  -4.8108  -4.6553  -4.5942  -4.5445   3.5436   8.8441  12.4179
    14.7359  18.7846  23.6490

          k = 0.6667-0.1667 0.6667 (   551 PWs)   bands (ev):

    -4.9816  -4.6875  -4.6664  -4.6009  -4.5309   3.9861   8.2808  11.7005
    15.1493  19.0189  25.7373

          k = 0.5833-0.0833 0.5833 (   547 PWs)   bands (ev):

    -4.9178  -4.6861  -4.6526  -4.5708  -4.4774   3.4861   9.0563  11.3684
    15.8320  19.4856  25.5363

          k = 0.5000 0.0000 0.5000 (   548 PWs)   bands (ev):

    -4.8945  -4.7395  -4.7027  -4.5623  -4.5265   2.5867  10.2438  11.8277
    16.6956  20.1841  24.9126

          k = 0.0000 0.6667 0.0000 (   556 PWs)   bands (ev):

    -5.1503  -4.9074  -4.5724  -4.5724  -4.5493   2.3218  11.2936  14.2511
    14.2511  18.2113  19.1081

          k =-0.0833 0.7500-0.0833 (   553 PWs)   bands (ev):

    -5.1198  -4.8964  -4.5549  -4.4840  -4.4664   3.0974  10.1017  13.2730
    13.9641  18.1053  19.5607

          k = 0.8333-0.1667 0.8333 (   548 PWs)   bands (ev):

    -5.0565  -4.8056  -4.4988  -4.4641  -4.4072   3.9336   9.1349  11.8206
    13.9951  18.2053  21.2116

          k = 0.7500-0.0833 0.7500 (   551 PWs)   bands (ev):

    -4.9654  -4.7145  -4.6425  -4.5726  -4.5006   4.4299   8.8686  10.5253
    14.3438  18.4368  23.4299

          k = 0.6667-0.0000 0.6667 (   558 PWs)   bands (ev):

    -5.0364  -4.7728  -4.7246  -4.6663  -4.5470   4.1840   9.5239   9.7663
    14.9801  18.8466  25.9400

          k = 0.0000 0.8333 0.0000 (   556 PWs)   bands (ev):

    -5.1736  -4.9021  -4.5210  -4.5042  -4.5042   3.7512   9.1359  13.5798
    13.5798  17.4649  18.7787

          k = 0.9167-0.0833 0.9167 (   552 PWs)   bands (ev):

    -5.1188  -4.8854  -4.5022  -4.4623  -4.3959   4.4080   8.4025  12.6805
    13.5152  17.6838  19.3192

          k = 0.8333 0.0000 0.8333 (   546 PWs)   bands (ev):

    -5.0128  -4.6389  -4.5077  -4.4860  -4.4612   4.6771   8.4316  11.2826
    13.7783  18.0390  21.0833

          k = 0.0000-1.0000 0.0000 (   556 PWs)   bands (ev):

    -5.1235  -4.8360  -4.5549  -4.4930  -4.4930   4.6661   7.9642  13.3498
    13.3498  17.2408  18.6788

          k =-0.1667 0.3333 0.0000 (   554 PWs)   bands (ev):

    -5.0417  -4.8888  -4.7560  -4.7290  -4.5905   0.3690  14.3156  15.8193
    17.8368  21.4229  22.1972

          k =-0.2500 0.4167-0.0833 (   554 PWs)   bands (ev):

    -4.9746  -4.9068  -4.7821  -4.6640  -4.5375   1.0450  12.2423  14.9421
    17.3700  21.2354  22.4821

          k =-0.3333 0.5000-0.1667 (   555 PWs)   bands (ev):

    -4.9563  -4.8565  -4.8374  -4.6368  -4.5006   1.9501  10.0754  14.5617
    16.6655  20.7643  22.9814

          k = 0.5833-0.4167 0.7500 (   554 PWs)   bands (ev):

    -4.9394  -4.8681  -4.7658  -4.5916  -4.5139   2.9428   8.2816  14.4266
    16.0748  20.5041  22.7672

          k = 0.5000-0.3333 0.6667 (   552 PWs)   bands (ev):

    -4.8799  -4.8292  -4.7622  -4.5806  -4.5322   3.4926   7.4605  14.4093
    15.8383  20.4250  22.6492

          k =-0.1667 0.5000 0.0000 (   555 PWs)   bands (ev):

    -5.0252  -4.9392  -4.6917  -4.6547  -4.5543   1.2687  12.6556  14.5223
    15.9917  20.2852  20.7047

          k =-0.2500 0.5833-0.0833 (   552 PWs)   bands (ev):

    -4.9741  -4.8431  -4.6908  -4.6226  -4.4946   2.0877  10.9175  13.6546
    15.3214  20.0370  21.9537

          k = 0.6667-0.3333 0.8333 (   557 PWs)   bands (ev):

    -4.9963  -4.8557  -4.7017  -4.6362  -4.6090   3.0402   9.1866  13.1397
    14.8005  19.9471  23.6014

          k = 0.5833-0.2500 0.7500 (   551 PWs)   bands (ev):

    -4.9279  -4.8049  -4.6724  -4.5952  -4.4996   3.7696   8.0946  12.7077
    14.7572  20.0717  23.7311

          k = 0.5000-0.1667 0.6667 (   549 PWs)   bands (ev):

    -4.8892  -4.7797  -4.6681  -4.5517  -4.5215   3.5785   8.3922  12.4161
    15.1611  20.3927  23.4647

          k = 0.4167-0.0833 0.5833 (   552 PWs)   bands (ev):

    -4.9070  -4.8156  -4.7633  -4.5648  -4.5412   2.7040   9.7909  12.4335
    15.8731  20.8669  23.3454

          k = 0.3333 0.0000 0.5000 (   552 PWs)   bands (ev):

    -4.8680  -4.8599  -4.7869  -4.6033  -4.5476   1.7846  11.3184  13.1311
    16.7291  21.3372  22.8203

          k =-0.1667 0.6667-0.0000 (   555 PWs)   bands (ev):

    -5.0988  -4.8903  -4.6337  -4.5983  -4.4684   2.4791  10.9563  13.5039
    14.2188  19.1181  20.1135

          k = 0.7500-0.2500 0.9167 (   555 PWs)   bands (ev):

    -5.0198  -4.8912  -4.6154  -4.5742  -4.5294   3.3527   9.7556  12.3827
    13.7450  19.3233  21.4723

          k = 0.6667-0.1667 0.8333 (   552 PWs)   bands (ev):

    -4.9946  -4.7512  -4.6462  -4.6013  -4.4871   4.1096   8.8708  11.3439
    13.7941  19.5053  23.5568

          k = 0.5833-0.0833 0.7500 (   549 PWs)   bands (ev):

    -4.9425  -4.6863  -4.6241  -4.5647  -4.5288   4.1963   8.9298  10.6539
    14.2344  19.8577  25.1798

          k = 0.5000 0.0000 0.6667 (   550 PWs)   bands (ev):

    -4.9393  -4.7070  -4.6631  -4.5931  -4.5391   3.5499   9.6135  10.8082
    14.9681  20.3682  25.0154

          k = 0.8333-0.1667 1.0000 (   552 PWs)   bands (ev):

    -5.0865  -4.8630  -4.5289  -4.4746  -4.4561   3.8522   9.1970  12.8576
    13.1293  18.4989  19.7607

          k = 0.7500-0.0833 0.9167 (   552 PWs)   bands (ev):

    -5.0560  -4.7972  -4.5696  -4.5112  -4.4588   4.4890   8.7401  11.4709
    13.0996  18.9968  21.2141

          k = 0.6667 0.0000 0.8333 (   548 PWs)   bands (ev):

    -4.9216  -4.6629  -4.6419  -4.5511  -4.4587   4.6025   9.1089  10.1879
    13.5175  19.3729  23.4636

          k =-0.1667-1.0000-0.0000 (   552 PWs)   bands (ev):

    -5.1318  -4.7637  -4.5264  -4.5172  -4.4213   4.6882   8.1988  12.6351
    12.7848  18.3127  19.6373

          k = 0.6667-0.3333 1.0000 (   549 PWs)   bands (ev):

    -4.8570  -4.8405  -4.6587  -4.5405  -4.5161   2.9211  10.2208  12.1262
    14.4600  20.9492  22.2853

          k = 0.5833-0.2500 0.9167 (   554 PWs)   bands (ev):

    -4.9162  -4.7985  -4.7246  -4.5989  -4.5716   3.7772   9.2282  11.4674
    13.7309  21.1740  23.4133

          k = 0.5000-0.1667 0.8333 (   552 PWs)   bands (ev):

    -4.9308  -4.7788  -4.6393  -4.6348  -4.5185   4.2077   8.6753  11.3497
    13.4468  21.1891  23.4668

          k = 0.6667-0.1667 1.0000 (   553 PWs)   bands (ev):

    -4.9625  -4.8590  -4.6288  -4.5703  -4.4722   4.1116   9.3382  11.4869
    12.6714  20.6573  21.9007

          k = 0.5833-0.0833 0.9167 (   545 PWs)   bands (ev):

    -4.8714  -4.6733  -4.5900  -4.5273  -4.4381   4.5744   9.2978  10.5288
    12.4188  21.2550  23.6526

          k = 0.5000 0.0000 0.8333 (   551 PWs)   bands (ev):

    -4.8599  -4.7182  -4.6913  -4.5937  -4.5413   4.4059   9.5883  10.1632
    12.8603  21.5511  24.5273

          k =-0.3333-1.0000 0.0000 (   548 PWs)   bands (ev):

    -4.9885  -4.6870  -4.6012  -4.5010  -4.4153   4.7329   8.8813  11.2687
    12.0086  20.5594  21.7696

          k =-0.5000-1.0000 0.0000 (   560 PWs)   bands (ev):

    -4.9070  -4.7781  -4.7781  -4.7270  -4.5786   4.7565   9.9401   9.9401
    11.6903  22.4670  24.3984

     the Fermi energy is    11.3919 ev

!    total energy              =    -118.66866501 Ry
     estimated scf accuracy    <          8.4E-14 Ry
     smearing contrib. (-TS)   =      -0.00075443 Ry
     internal energy E=F+TS    =    -118.66791058 Ry

     The total energy is F=E-TS. E is the sum of the following terms:
     one-electron contribution =     -31.76134508 Ry
     hartree contribution      =      24.58139438 Ry
     xc contribution           =     -14.54804974 Ry
     ewald contribution        =     -96.93991015 Ry

     convergence has been achieved in   9 iterations

     Writing all to output data dir ./pb.save/ :
     XML data file, charge density, pseudopotentials, collected wavefunctions
 
     init_run     :      0.01s CPU      0.06s WALL (       1 calls)
     electrons    :      0.21s CPU      0.24s WALL (       1 calls)

     Called by init_run:
     wfcinit      :      0.00s CPU      0.02s WALL (       1 calls)
     potinit      :      0.00s CPU      0.00s WALL (       1 calls)
     hinit0       :      0.00s CPU      0.04s WALL (       1 calls)

     Called by electrons:
     c_bands      :      0.17s CPU      0.19s WALL (      10 calls)
     sum_band     :      0.03s CPU      0.03s WALL (      10 calls)
     v_of_rho     :      0.00s CPU      0.00s WALL (      10 calls)
     mix_rho      :      0.00s CPU      0.00s WALL (      10 calls)

     Called by c_bands:
     init_us_2    :      0.00s CPU      0.00s WALL (     378 calls)
     init_us_2:cp :      0.00s CPU      0.00s WALL (     378 calls)
     cegterg      :      0.15s CPU      0.17s WALL (     180 calls)

     Called by *egterg:
     cdiaghg      :      0.04s CPU      0.04s WALL (     670 calls)
     h_psi        :      0.10s CPU      0.12s WALL (     706 calls)
     g_psi        :      0.00s CPU      0.00s WALL (     508 calls)

     Called by h_psi:
     h_psi:calbec :      0.00s CPU      0.00s WALL (     706 calls)
     vloc_psi     :      0.09s CPU      0.11s WALL (     706 calls)
     add_vuspsi   :      0.00s CPU      0.00s WALL (     706 calls)

     General routines
     calbec       :      0.00s CPU      0.00s WALL (     706 calls)
     fft          :      0.00s CPU      0.03s WALL (      30 calls)
     ffts         :      0.00s CPU      0.00s WALL (      10 calls)
     fftw         :      0.10s CPU      0.11s WALL (   11980 calls)
 
     Parallel routines
 
     PWSCF        :      0.24s CPU      0.77s WALL

 
   This run was terminated on:  11: 7: 1  21May2025            

=------------------------------------------------------------------------------=
   JOB DONE.
=------------------------------------------------------------------------------=
