 written on 21May2025 at 11:07:43 
          27           8
   -0.426951    0.426951   -0.426951    0.685732
    0.426951    0.426951    0.426951    0.685732
   -0.426951   -0.426951    0.426951    0.685732
   -0.426951    0.426951    0.426951    0.685732
    0.426951   -0.426951    0.426951    0.685732
   -0.426951   -0.426951   -0.426951    0.685732
    0.426951    0.426951   -0.426951    0.685732
    0.426951   -0.426951   -0.426951    0.685732
    0.426951   -0.426951    0.426951    0.685732
   -0.426951    0.426951   -0.426951    0.685732
    0.426951    0.426951    0.426951    0.685732
   -0.426951   -0.426951    0.426951    0.685732
   -0.426951    0.426951    0.426951    0.685732
   -0.426951   -0.426951   -0.426951    0.685732
    0.426951    0.426951   -0.426951    0.685732
    0.426951   -0.426951   -0.426951    0.685732
    0.426951   -0.426951    0.426951    0.685732
    0.426951    0.426951    0.426951    0.685732
   -0.426951   -0.426951    0.426951    0.685732
   -0.426951    0.426951   -0.426951    0.685732
   -0.426951    0.426951    0.426951    0.685732
   -0.426951   -0.426951   -0.426951    0.685732
    0.426951    0.426951   -0.426951    0.685732
    0.426951   -0.426951   -0.426951    0.685732
   -0.426951   -0.426951   -0.426951    0.685732
   -0.426951    0.426951   -0.426951    0.685732
    0.426951    0.426951    0.426951    0.685732
   -0.426951   -0.426951    0.426951    0.685732
   -0.426951    0.426951    0.426951    0.685732
    0.426951   -0.426951    0.426951    0.685732
    0.426951    0.426951   -0.426951    0.685732
    0.426951   -0.426951   -0.426951    0.685732
   -0.426951   -0.426951   -0.426951    0.685732
    0.426951   -0.426951    0.426951    0.685732
   -0.426951    0.426951   -0.426951    0.685732
    0.426951    0.426951    0.426951    0.685732
   -0.426951   -0.426951    0.426951    0.685732
   -0.426951    0.426951    0.426951    0.685732
    0.426951   -0.426951   -0.426951    0.685732
    0.426951    0.426951   -0.426951    0.685732
   -0.426951   -0.426951   -0.426951    0.685732
    0.426951   -0.426951    0.426951    0.685732
    0.426951    0.426951    0.426951    0.685732
   -0.426951   -0.426951    0.426951    0.685732
   -0.426951    0.426951   -0.426951    0.685732
   -0.426951    0.426951    0.426951    0.685732
    0.426951   -0.426951   -0.426951    0.685732
    0.426951    0.426951   -0.426951    0.685732
   -0.426951   -0.426951   -0.426951    0.685732
   -0.426951    0.426951   -0.426951    0.685732
   -0.426951   -0.426951    0.426951    0.685732
    0.426951    0.426951    0.426951    0.685732
   -0.426951    0.426951    0.426951    0.685732
    0.426951   -0.426951    0.426951    0.685732
    0.426951    0.426951   -0.426951    0.685732
    0.426951   -0.426951   -0.426951    0.685732
   -0.426951   -0.426951   -0.426951    0.685732
    0.426951   -0.426951    0.426951    0.685732
   -0.426951    0.426951   -0.426951    0.685732
   -0.426951   -0.426951    0.426951    0.685732
    0.426951    0.426951    0.426951    0.685732
   -0.426951    0.426951    0.426951    0.685732
    0.426951   -0.426951   -0.426951    0.685732
    0.426951    0.426951   -0.426951    0.685732
   -0.426951   -0.426951   -0.426951    0.685732
    0.426951   -0.426951    0.426951    0.685732
   -0.426951   -0.426951    0.426951    0.685732
    0.426951    0.426951    0.426951    0.685732
   -0.426951    0.426951   -0.426951    0.685732
    0.426951   -0.426951   -0.426951    0.685732
    0.426951    0.426951   -0.426951    0.685732
   -0.426951    0.426951    0.426951    0.685732
    0.426951    0.426951   -0.426951    0.685732
   -0.426951    0.426951   -0.426951    0.685732
    0.426951    0.426951    0.426951    0.685732
   -0.426951   -0.426951    0.426951    0.685732
   -0.426951    0.426951    0.426951    0.685732
    0.426951   -0.426951    0.426951    0.685732
   -0.426951   -0.426951   -0.426951    0.685732
    0.426951   -0.426951   -0.426951    0.685732
    0.426951    0.426951   -0.426951    0.685732
    0.426951   -0.426951    0.426951    0.685732
   -0.426951    0.426951   -0.426951    0.685732
    0.426951    0.426951    0.426951    0.685732
   -0.426951   -0.426951    0.426951    0.685732
   -0.426951    0.426951    0.426951    0.685732
    0.426951   -0.426951   -0.426951    0.685732
   -0.426951   -0.426951   -0.426951    0.685732
    0.426951    0.426951   -0.426951    0.685732
    0.426951   -0.426951    0.426951    0.685732
    0.426951    0.426951    0.426951    0.685732
   -0.426951   -0.426951    0.426951    0.685732
   -0.426951    0.426951   -0.426951    0.685732
   -0.426951    0.426951    0.426951    0.685732
    0.426951   -0.426951   -0.426951    0.685732
   -0.426951   -0.426951   -0.426951    0.685732
    0.426951    0.426951   -0.426951    0.685732
   -0.426951   -0.426951   -0.426951    0.685732
   -0.426951    0.426951   -0.426951    0.685732
    0.426951    0.426951    0.426951    0.685732
   -0.426951   -0.426951    0.426951    0.685732
   -0.426951    0.426951    0.426951    0.685732
    0.426951   -0.426951   -0.426951    0.685732
    0.426951   -0.426951    0.426951    0.685732
    0.426951   -0.426951   -0.426951    0.685732
    0.426951    0.426951   -0.426951    0.685732
   -0.426951   -0.426951   -0.426951    0.685732
    0.426951   -0.426951    0.426951    0.685732
   -0.426951    0.426951   -0.426951    0.685732
    0.426951    0.426951    0.426951    0.685732
   -0.426951   -0.426951    0.426951    0.685732
   -0.426951    0.426951    0.426951    0.685732
    0.426951   -0.426951   -0.426951    0.685732
    0.426951    0.426951   -0.426951    0.685732
   -0.426951   -0.426951   -0.426951    0.685732
    0.426951   -0.426951    0.426951    0.685732
    0.426951    0.426951    0.426951    0.685732
   -0.426951   -0.426951    0.426951    0.685732
   -0.426951    0.426951   -0.426951    0.685732
   -0.426951    0.426951    0.426951    0.685732
    0.426951    0.426951   -0.426951    0.685732
   -0.426951   -0.426951   -0.426951    0.685732
   -0.426951    0.426951   -0.426951    0.685732
   -0.426951   -0.426951    0.426951    0.685732
    0.426951    0.426951    0.426951    0.685732
   -0.426951    0.426951    0.426951    0.685732
    0.426951   -0.426951   -0.426951    0.685732
    0.426951   -0.426951    0.426951    0.685732
    0.426951   -0.426951   -0.426951    0.685732
    0.426951    0.426951   -0.426951    0.685732
   -0.426951   -0.426951   -0.426951    0.685732
    0.426951   -0.426951    0.426951    0.685732
   -0.426951    0.426951   -0.426951    0.685732
   -0.426951   -0.426951    0.426951    0.685732
    0.426951    0.426951    0.426951    0.685732
   -0.426951    0.426951    0.426951    0.685732
    0.426951   -0.426951   -0.426951    0.685732
    0.426951    0.426951   -0.426951    0.685732
   -0.426951   -0.426951   -0.426951    0.685732
    0.426951   -0.426951    0.426951    0.685732
   -0.426951   -0.426951    0.426951    0.685732
    0.426951    0.426951    0.426951    0.685732
   -0.426951    0.426951   -0.426951    0.685732
   -0.426951    0.426951    0.426951    0.685732
    0.426951    0.426951   -0.426951    0.685732
   -0.426951    0.426951   -0.426951    0.685732
    0.426951    0.426951    0.426951    0.685732
   -0.426951   -0.426951    0.426951    0.685732
   -0.426951    0.426951    0.426951    0.685732
    0.426951   -0.426951    0.426951    0.685732
   -0.426951   -0.426951   -0.426951    0.685732
    0.426951   -0.426951   -0.426951    0.685732
    0.426951    0.426951   -0.426951    0.685732
    0.426951   -0.426951    0.426951    0.685732
   -0.426951    0.426951   -0.426951    0.685732
    0.426951    0.426951    0.426951    0.685732
   -0.426951   -0.426951    0.426951    0.685732
   -0.426951    0.426951    0.426951    0.685732
    0.426951   -0.426951   -0.426951    0.685732
   -0.426951   -0.426951   -0.426951    0.685732
    0.426951    0.426951   -0.426951    0.685732
    0.426951   -0.426951    0.426951    0.685732
    0.426951    0.426951    0.426951    0.685732
   -0.426951   -0.426951    0.426951    0.685732
   -0.426951    0.426951   -0.426951    0.685732
    0.426951   -0.426951   -0.426951    0.685732
   -0.426951   -0.426951   -0.426951    0.685732
   -0.426951    0.426951    0.426951    0.685732
    0.426951    0.426951   -0.426951    0.685732
   -0.426951   -0.426951   -0.426951    0.685732
   -0.426951    0.426951   -0.426951    0.685732
    0.426951    0.426951    0.426951    0.685732
   -0.426951   -0.426951    0.426951    0.685732
   -0.426951    0.426951    0.426951    0.685732
    0.426951   -0.426951   -0.426951    0.685732
    0.426951   -0.426951    0.426951    0.685732
    0.426951   -0.426951   -0.426951    0.685732
    0.426951    0.426951   -0.426951    0.685732
   -0.426951   -0.426951   -0.426951    0.685732
    0.426951   -0.426951    0.426951    0.685732
   -0.426951    0.426951   -0.426951    0.685732
    0.426951    0.426951    0.426951    0.685732
   -0.426951   -0.426951    0.426951    0.685732
   -0.426951    0.426951    0.426951    0.685732
    0.426951   -0.426951   -0.426951    0.685732
    0.426951    0.426951   -0.426951    0.685732
   -0.426951   -0.426951   -0.426951    0.685732
    0.426951   -0.426951    0.426951    0.685732
    0.426951    0.426951    0.426951    0.685732
   -0.426951   -0.426951    0.426951    0.685732
   -0.426951    0.426951   -0.426951    0.685732
   -0.426951    0.426951    0.426951    0.685732
    0.426951    0.426951   -0.426951    0.685732
   -0.426951   -0.426951   -0.426951    0.685732
   -0.426951    0.426951   -0.426951    0.685732
   -0.426951   -0.426951    0.426951    0.685732
    0.426951    0.426951    0.426951    0.685732
    0.426951   -0.426951   -0.426951    0.685732
    0.426951   -0.426951    0.426951    0.685732
   -0.426951    0.426951    0.426951    0.685732
    0.426951   -0.426951   -0.426951    0.685732
    0.426951    0.426951   -0.426951    0.685732
   -0.426951   -0.426951   -0.426951    0.685732
    0.426951   -0.426951    0.426951    0.685732
   -0.426951    0.426951   -0.426951    0.685732
   -0.426951   -0.426951    0.426951    0.685732
    0.426951    0.426951    0.426951    0.685732
   -0.426951    0.426951    0.426951    0.685732
    0.426951   -0.426951   -0.426951    0.685732
    0.426951    0.426951   -0.426951    0.685732
   -0.426951   -0.426951   -0.426951    0.685732
    0.426951   -0.426951    0.426951    0.685732
   -0.426951    0.426951    0.426951    0.685732
   -0.426951   -0.426951    0.426951    0.685732
    0.426951    0.426951    0.426951    0.685732
   -0.426951    0.426951   -0.426951    0.685732
