 
             +---------------------------------------------------+
             |                                                   |
             |                   WANNIER90                       |
             |                                                   |
             +---------------------------------------------------+
             |                                                   |
             |        Welcome to the Maximally-Localized         |
             |        Generalized Wannier Functions code         |
             |            http://www.wannier.org                 |
             |                                                   |
             |                                                   |
             |  Wannier90 Developer Group:                       |
             |    Giovanni Pizzi    (EPFL)                       |
             |    Valerio Vitale    (Cambridge)                  |
             |    David Vanderbilt  (Rutgers University)         |
             |    Nicola Marzari    (EPFL)                       |
             |    Ivo Souza         (Universidad del Pais Vasco) |
             |    Arash A. Mostofi  (Imperial College London)    |
             |    Jonathan R. Yates (University of Oxford)       |
             |                                                   |
             |  For the full list of Wannier90 3.x authors,      |
             |  please check the code documentation and the      |
             |  README on the GitHub page of the code            |
             |                                                   |
             |                                                   |
             |  Please cite                                      |
             |                                                   |
             |  [ref] "Wannier90 as a community code:            |
             |        new features and applications",            |
             |        G. Pizzi et al., J. Phys. Cond. Matt. 32,  |
             |        165902 (2020).                             |
             |        http://doi.org/10.1088/1361-648X/ab51ff    |
             |                                                   |
             |  in any publications arising from the use of      |
             |  this code. For the method please cite            |
             |                                                   |
             |  [ref] "Maximally Localized Generalised Wannier   |
             |         Functions for Composite Energy Bands"     |
             |         N. Marzari and D. Vanderbilt              |
             |         Phys. Rev. B 56 12847 (1997)              |
             |                                                   |
             |  [ref] "Maximally Localized Wannier Functions     |
             |         for Entangled Energy Bands"               |
             |         I. Souza, N. Marzari and D. Vanderbilt    |
             |         Phys. Rev. B 65 035109 (2001)             |
             |                                                   |
             |                                                   |
             | Copyright (c) 1996-2020                           |
             |        The Wannier90 Developer Group and          |
             |        individual contributors                    |
             |                                                   |
             |      Release: 3.1.0        5th March    2020      |
             |                                                   |
             | This program is free software; you can            |
             | redistribute it and/or modify it under the terms  |
             | of the GNU General Public License as published by |
             | the Free Software Foundation; either version 2 of |
             | the License, or (at your option) any later version|
             |                                                   |
             | This program is distributed in the hope that it   |
             | will be useful, but WITHOUT ANY WARRANTY; without |
             | even the implied warranty of MERCHANTABILITY or   |
             | FITNESS FOR A PARTICULAR PURPOSE. See the GNU     |
             | General Public License for more details.          |
             |                                                   |
             | You should have received a copy of the GNU General|
             | Public License along with this program; if not,   |
             | write to the Free Software Foundation, Inc.,      |
             | 675 Mass Ave, Cambridge, MA 02139, USA.           |
             |                                                   |
             +---------------------------------------------------+
             |    Execution started on 21May2025 at 11:07:42     |
             +---------------------------------------------------+
 
 ******************************************************************************
 * -> Using CODATA 2006 constant values                                       *
 *    (http://physics.nist.gov/cuu/Constants/index.html)                      *
 * -> Using Bohr value from CODATA                                            *
 ******************************************************************************
 

 Wannier90 is running in LIBRARY MODE

 Setting up k-point neighbours...

 
                                    ------
                                    SYSTEM
                                    ------
 
                              Lattice Vectors (Ang)
                    a_1    -2.452736   0.000000   2.452736
                    a_2     0.000000   2.452736   2.452736
                    a_3    -2.452736   2.452736   0.000000
 
                   Unit Cell Volume:      29.51091  (Ang^3)
 
                        Reciprocal-Space Vectors (Ang^-1)
                    b_1    -1.280852  -1.280852   1.280852
                    b_2     1.280852   1.280852   1.280852
                    b_3    -1.280852   1.280852  -1.280852
  
 *----------------------------------------------------------------------------*
 |   Site       Fractional Coordinate          Cartesian Coordinate (Ang)     |
 +----------------------------------------------------------------------------+
 | Pb   1   0.00000   0.00000   0.00000   |    0.00000   0.00000   0.00000    |
 *----------------------------------------------------------------------------*
                                -----------
                                PROJECTIONS
                                -----------
  
 +----------------------------------------------------------------------------+
 |     Frac. Coord.   l mr  r        z-axis               x-axis          Z/a |
 +----------------------------------------------------------------------------+
 |  0.00  0.00  0.00 -3  1  1  0.000  0.000  1.000  1.000  0.000  0.000   1.0 |
 |  0.00  0.00  0.00 -3  2  1  0.000  0.000  1.000  1.000  0.000  0.000   1.0 |
 |  0.00  0.00  0.00 -3  3  1  0.000  0.000  1.000  1.000  0.000  0.000   1.0 |
 |  0.00  0.00  0.00 -3  4  1  0.000  0.000  1.000  1.000  0.000  0.000   1.0 |
 +----------------------------------------------------------------------------+
  
                                ------------
                                K-POINT GRID
                                ------------
  
             Grid size =  3 x  3 x  3      Total points =   27
  
 *----------------------------------------------------------------------------*
 | k-point      Fractional Coordinate        Cartesian Coordinate (Ang^-1)    |
 +----------------------------------------------------------------------------+
 |     1    0.00000   0.00000   0.00000   |    0.00000   0.00000   0.00000    |
 |     2    0.00000   0.00000   0.33333   |   -0.42695   0.42695  -0.42695    |
 |     3    0.00000   0.00000   0.66667   |   -0.85390   0.85390  -0.85390    |
 |     4    0.00000   0.33333   0.00000   |    0.42695   0.42695   0.42695    |
 |     5    0.00000   0.33333   0.33333   |    0.00000   0.85390   0.00000    |
 |     6    0.00000   0.33333   0.66667   |   -0.42695   1.28085  -0.42695    |
 |     7    0.00000   0.66667   0.00000   |    0.85390   0.85390   0.85390    |
 |     8    0.00000   0.66667   0.33333   |    0.42695   1.28085   0.42695    |
 |     9    0.00000   0.66667   0.66667   |    0.00000   1.70780   0.00000    |
 |    10    0.33333   0.00000   0.00000   |   -0.42695  -0.42695   0.42695    |
 |    11    0.33333   0.00000   0.33333   |   -0.85390   0.00000   0.00000    |
 |    12    0.33333   0.00000   0.66667   |   -1.28085   0.42695  -0.42695    |
 |    13    0.33333   0.33333   0.00000   |    0.00000   0.00000   0.85390    |
 |    14    0.33333   0.33333   0.33333   |   -0.42695   0.42695   0.42695    |
 |    15    0.33333   0.33333   0.66667   |   -0.85390   0.85390  -0.00000    |
 |    16    0.33333   0.66667   0.00000   |    0.42695   0.42695   1.28085    |
 |    17    0.33333   0.66667   0.33333   |    0.00000   0.85390   0.85390    |
 |    18    0.33333   0.66667   0.66667   |   -0.42695   1.28085   0.42695    |
 |    19    0.66667   0.00000   0.00000   |   -0.85390  -0.85390   0.85390    |
 |    20    0.66667   0.00000   0.33333   |   -1.28085  -0.42695   0.42695    |
 |    21    0.66667   0.00000   0.66667   |   -1.70780   0.00000   0.00000    |
 |    22    0.66667   0.33333   0.00000   |   -0.42695  -0.42695   1.28085    |
 |    23    0.66667   0.33333   0.33333   |   -0.85390  -0.00000   0.85390    |
 |    24    0.66667   0.33333   0.66667   |   -1.28085   0.42695   0.42695    |
 |    25    0.66667   0.66667   0.00000   |    0.00000   0.00000   1.70780    |
 |    26    0.66667   0.66667   0.33333   |   -0.42695   0.42695   1.28085    |
 |    27    0.66667   0.66667   0.66667   |   -0.85390   0.85390   0.85390    |
 *----------------------------------------------------------------------------*
  
  
 *---------------------------------- MAIN ------------------------------------*
 |  Number of Wannier Functions               :                 4             |
 |  Number of Objective Wannier Functions     :                 4             |
 |  Number of input Bloch states              :                 5             |
 |  Output verbosity (1=low, 5=high)          :                 2             |
 |  Timing Level (1=low, 5=high)              :                 1             |
 |  Optimisation (0=memory, 3=speed)          :                 3             |
 |  Length Unit                               :               Ang             |
 |  Post-processing setup (write *.nnkp)      :                 T             |
 |  Using Gamma-only branch of algorithms     :                 F             |
 *----------------------------------------------------------------------------*
 *------------------------------- WANNIERISE ---------------------------------*
 |  Total number of iterations                :               300             |
 |  Number of CG steps before reset           :                 5             |
 |  Trial step length for line search         :             2.000             |
 |  Convergence tolerence                     :         0.100E-09             |
 |  Convergence window                        :                -1             |
 |  Iterations between writing output         :                 1             |
 |  Iterations between backing up to disk     :               100             |
 |  Write r^2_nm to file                      :                 F             |
 |  Write xyz WF centres to file              :                 F             |
 |  Write on-site energies <0n|H|0n> to file  :                 F             |
 |  Use guiding centre to control phases      :                 F             |
 |  Use phases for initial projections        :                 F             |
 *----------------------------------------------------------------------------*
 *------------------------------- DISENTANGLE --------------------------------*
 |  Using band disentanglement                :                 T             |
 |  Total number of iterations                :               200             |
 |  Mixing ratio                              :             0.500             |
 |  Convergence tolerence                     :         1.000E-10             |
 |  Convergence window                        :                 3             |
 *----------------------------------------------------------------------------*
 *-------------------------------- PLOTTING ----------------------------------*
 |  Plotting interpolated bandstructure       :                 T             |
 |   Number of K-path sections                :                 6             |
 |   Divisions along first K-path section     :               100             |
 |   Output format                            :           gnuplot             |
 |   Output mode                              :               s-k             |
 *----------------------------------------------------------------------------*
 |   K-space path sections:                                                   |
 |    From: G       0.000  0.000  0.000     To: X       0.000  0.500  0.500   |
 |    From: X       0.000  0.500  0.500     To: W       0.250  0.500  0.750   |
 |    From: W       0.250  0.500  0.750     To: L       0.500  0.500  0.500   |
 |    From: L       0.500  0.500  0.500     To: K       0.375  0.375  0.750   |
 |    From: K       0.375  0.375  0.750     To: G       0.000  0.000  0.000   |
 |    From: G       0.000  0.000  0.000     To: L       0.500  0.500  0.500   |
 *----------------------------------------------------------------------------*
 |  Plotting Hamiltonian in WF basis          :                 T             |
 *----------------------------------------------------------------------------*
 Time to read parameters        0.001 (sec)

 *---------------------------------- K-MESH ----------------------------------*
 +----------------------------------------------------------------------------+
 |                    Distance to Nearest-Neighbour Shells                    |
 |                    ------------------------------------                    |
 |          Shell             Distance (Ang^-1)          Multiplicity         |
 |          -----             -----------------          ------------         |
 |             1                   0.739500                      8            |
 |             2                   0.853901                      6            |
 |             3                   1.207599                     12            |
 |             4                   1.416035                     24            |
 |             5                   1.479001                      8            |
 |             6                   1.707803                      6            |
 |             7                   1.861035                     24            |
 |             8                   1.909382                     24            |
 |             9                   2.091623                     24            |
 |            10                   2.218501                     32            |
 |            11                   2.415198                     12            |
 |            12                   2.525874                     48            |
 |            13                   2.561704                     30            |
 |            14                   2.700273                     24            |
 |            15                   2.799703                     24            |
 |            16                   2.832071                     24            |
 |            17                   2.958001                      8            |
 |            18                   3.049038                     48            |
 |            19                   3.078785                     24            |
 |            20                   3.195007                     48            |
 |            21                   3.279471                     72            |
 |            22                   3.415606                      6            |
 |            23                   3.494742                     24            |
 |            24                   3.520726                     48            |
 |            25                   3.622797                     36            |
 |            26                   3.697502                     56            |
 |            27                   3.722070                     24            |
 |            28                   3.818763                     24            |
 |            29                   3.889706                     72            |
 |            30                   3.913068                     48            |
 |            31                   4.005153                     24            |
 |            32                   4.072850                     48            |
 |            33                   4.183246                     24            |
 |            34                   4.248106                     72            |
 |            35                   4.269507                     30            |
 |            36                   4.354060                     72            |
 +----------------------------------------------------------------------------+
 | The b-vectors are chosen automatically                                     |
 | Shell:  1 w_b    0.6857322      (Ang^2)                                    |
 | The following shells are used:   1                                         |
 +----------------------------------------------------------------------------+
 |                        Shell   # Nearest-Neighbours                        |
 |                        -----   --------------------                        |
 |                          1               8                                 |
 +----------------------------------------------------------------------------+
 | Completeness relation is fully satisfied [Eq. (B1), PRB 56, 12847 (1997)]  |
 +----------------------------------------------------------------------------+
 |                  b_k Vectors (Ang^-1) and Weights (Ang^2)                  |
 |                  ----------------------------------------                  |
 |            No.         b_k(x)      b_k(y)      b_k(z)        w_b           |
 |            ---        --------------------------------     --------        |
 |             1        -0.426951    0.426951   -0.426951     0.685732        |
 |             2         0.426951    0.426951    0.426951     0.685732        |
 |             3        -0.426951   -0.426951    0.426951     0.685732        |
 |             4        -0.426951    0.426951    0.426951     0.685732        |
 |             5         0.426951   -0.426951    0.426951     0.685732        |
 |             6        -0.426951   -0.426951   -0.426951     0.685732        |
 |             7         0.426951    0.426951   -0.426951     0.685732        |
 |             8         0.426951   -0.426951   -0.426951     0.685732        |
 +----------------------------------------------------------------------------+
 |                           b_k Directions (Ang^-1)                          |
 |                           -----------------------                          |
 |            No.           x           y           z                         |
 |            ---        --------------------------------                     |
 |             1        -0.426951    0.426951   -0.426951                     |
 |             2         0.426951    0.426951    0.426951                     |
 |             3        -0.426951   -0.426951    0.426951                     |
 |             4        -0.426951    0.426951    0.426951                     |
 +----------------------------------------------------------------------------+
  
 Time to write kmesh            0.012 (sec)

 pb.nnkp written.
 Time to write kmesh            0.012 (sec)

 Finished setting up k-point neighbours.

 Exiting wannier_setup in wannier90 11:07:42 

 Resuming Wannier90 at 11:07:43 

 
                                    ------
                                    SYSTEM
                                    ------
 
                              Lattice Vectors (Ang)
                    a_1    -2.452736   0.000000   2.452736
                    a_2     0.000000   2.452736   2.452736
                    a_3    -2.452736   2.452736   0.000000
 
                   Unit Cell Volume:      29.51091  (Ang^3)
 
                        Reciprocal-Space Vectors (Ang^-1)
                    b_1    -1.280852  -1.280852   1.280852
                    b_2     1.280852   1.280852   1.280852
                    b_3    -1.280852   1.280852  -1.280852
  
 *----------------------------------------------------------------------------*
 |   Site       Fractional Coordinate          Cartesian Coordinate (Ang)     |
 +----------------------------------------------------------------------------+
 | Pb   1   0.00000   0.00000   0.00000   |    0.00000   0.00000   0.00000    |
 *----------------------------------------------------------------------------*
                                -----------
                                PROJECTIONS
                                -----------
  
 +----------------------------------------------------------------------------+
 |     Frac. Coord.   l mr  r        z-axis               x-axis          Z/a |
 +----------------------------------------------------------------------------+
 |  0.00  0.00  0.00 -3  1  1  0.000  0.000  1.000  1.000  0.000  0.000   1.0 |
 |  0.00  0.00  0.00 -3  2  1  0.000  0.000  1.000  1.000  0.000  0.000   1.0 |
 |  0.00  0.00  0.00 -3  3  1  0.000  0.000  1.000  1.000  0.000  0.000   1.0 |
 |  0.00  0.00  0.00 -3  4  1  0.000  0.000  1.000  1.000  0.000  0.000   1.0 |
 +----------------------------------------------------------------------------+
  
                                ------------
                                K-POINT GRID
                                ------------
  
             Grid size =  3 x  3 x  3      Total points =   27
  
 *----------------------------------------------------------------------------*
 | k-point      Fractional Coordinate        Cartesian Coordinate (Ang^-1)    |
 +----------------------------------------------------------------------------+
 |     1    0.00000   0.00000   0.00000   |    0.00000   0.00000   0.00000    |
 |     2    0.00000   0.00000   0.33333   |   -0.42695   0.42695  -0.42695    |
 |     3    0.00000   0.00000   0.66667   |   -0.85390   0.85390  -0.85390    |
 |     4    0.00000   0.33333   0.00000   |    0.42695   0.42695   0.42695    |
 |     5    0.00000   0.33333   0.33333   |    0.00000   0.85390   0.00000    |
 |     6    0.00000   0.33333   0.66667   |   -0.42695   1.28085  -0.42695    |
 |     7    0.00000   0.66667   0.00000   |    0.85390   0.85390   0.85390    |
 |     8    0.00000   0.66667   0.33333   |    0.42695   1.28085   0.42695    |
 |     9    0.00000   0.66667   0.66667   |    0.00000   1.70780   0.00000    |
 |    10    0.33333   0.00000   0.00000   |   -0.42695  -0.42695   0.42695    |
 |    11    0.33333   0.00000   0.33333   |   -0.85390   0.00000   0.00000    |
 |    12    0.33333   0.00000   0.66667   |   -1.28085   0.42695  -0.42695    |
 |    13    0.33333   0.33333   0.00000   |    0.00000   0.00000   0.85390    |
 |    14    0.33333   0.33333   0.33333   |   -0.42695   0.42695   0.42695    |
 |    15    0.33333   0.33333   0.66667   |   -0.85390   0.85390  -0.00000    |
 |    16    0.33333   0.66667   0.00000   |    0.42695   0.42695   1.28085    |
 |    17    0.33333   0.66667   0.33333   |    0.00000   0.85390   0.85390    |
 |    18    0.33333   0.66667   0.66667   |   -0.42695   1.28085   0.42695    |
 |    19    0.66667   0.00000   0.00000   |   -0.85390  -0.85390   0.85390    |
 |    20    0.66667   0.00000   0.33333   |   -1.28085  -0.42695   0.42695    |
 |    21    0.66667   0.00000   0.66667   |   -1.70780   0.00000   0.00000    |
 |    22    0.66667   0.33333   0.00000   |   -0.42695  -0.42695   1.28085    |
 |    23    0.66667   0.33333   0.33333   |   -0.85390  -0.00000   0.85390    |
 |    24    0.66667   0.33333   0.66667   |   -1.28085   0.42695   0.42695    |
 |    25    0.66667   0.66667   0.00000   |    0.00000   0.00000   1.70780    |
 |    26    0.66667   0.66667   0.33333   |   -0.42695   0.42695   1.28085    |
 |    27    0.66667   0.66667   0.66667   |   -0.85390   0.85390   0.85390    |
 *----------------------------------------------------------------------------*
  
  
 *---------------------------------- MAIN ------------------------------------*
 |  Number of Wannier Functions               :                 4             |
 |  Number of Objective Wannier Functions     :                 4             |
 |  Number of input Bloch states              :                 5             |
 |  Output verbosity (1=low, 5=high)          :                 2             |
 |  Timing Level (1=low, 5=high)              :                 1             |
 |  Optimisation (0=memory, 3=speed)          :                 3             |
 |  Length Unit                               :               Ang             |
 |  Post-processing setup (write *.nnkp)      :                 T             |
 |  Using Gamma-only branch of algorithms     :                 F             |
 *----------------------------------------------------------------------------*
 *------------------------------- WANNIERISE ---------------------------------*
 |  Total number of iterations                :               300             |
 |  Number of CG steps before reset           :                 5             |
 |  Trial step length for line search         :             2.000             |
 |  Convergence tolerence                     :         0.100E-09             |
 |  Convergence window                        :                -1             |
 |  Iterations between writing output         :                 1             |
 |  Iterations between backing up to disk     :               100             |
 |  Write r^2_nm to file                      :                 F             |
 |  Write xyz WF centres to file              :                 F             |
 |  Write on-site energies <0n|H|0n> to file  :                 F             |
 |  Use guiding centre to control phases      :                 F             |
 |  Use phases for initial projections        :                 F             |
 *----------------------------------------------------------------------------*
 *------------------------------- DISENTANGLE --------------------------------*
 |  Using band disentanglement                :                 T             |
 |  Total number of iterations                :               200             |
 |  Mixing ratio                              :             0.500             |
 |  Convergence tolerence                     :         1.000E-10             |
 |  Convergence window                        :                 3             |
 *----------------------------------------------------------------------------*
 *-------------------------------- PLOTTING ----------------------------------*
 |  Plotting interpolated bandstructure       :                 T             |
 |   Number of K-path sections                :                 6             |
 |   Divisions along first K-path section     :               100             |
 |   Output format                            :           gnuplot             |
 |   Output mode                              :               s-k             |
 *----------------------------------------------------------------------------*
 |   K-space path sections:                                                   |
 |    From: G       0.000  0.000  0.000     To: X       0.000  0.500  0.500   |
 |    From: X       0.000  0.500  0.500     To: W       0.250  0.500  0.750   |
 |    From: W       0.250  0.500  0.750     To: L       0.500  0.500  0.500   |
 |    From: L       0.500  0.500  0.500     To: K       0.375  0.375  0.750   |
 |    From: K       0.375  0.375  0.750     To: G       0.000  0.000  0.000   |
 |    From: G       0.000  0.000  0.000     To: L       0.500  0.500  0.500   |
 *----------------------------------------------------------------------------*
 |  Plotting Hamiltonian in WF basis          :                 T             |
 *----------------------------------------------------------------------------*
 Time to read parameters        0.001 (sec)

 *---------------------------------- K-MESH ----------------------------------*
 +----------------------------------------------------------------------------+
 |                    Distance to Nearest-Neighbour Shells                    |
 |                    ------------------------------------                    |
 |          Shell             Distance (Ang^-1)          Multiplicity         |
 |          -----             -----------------          ------------         |
 |             1                   0.739500                      8            |
 |             2                   0.853901                      6            |
 |             3                   1.207599                     12            |
 |             4                   1.416035                     24            |
 |             5                   1.479001                      8            |
 |             6                   1.707803                      6            |
 |             7                   1.861035                     24            |
 |             8                   1.909382                     24            |
 |             9                   2.091623                     24            |
 |            10                   2.218501                     32            |
 |            11                   2.415198                     12            |
 |            12                   2.525874                     48            |
 |            13                   2.561704                     30            |
 |            14                   2.700273                     24            |
 |            15                   2.799703                     24            |
 |            16                   2.832071                     24            |
 |            17                   2.958001                      8            |
 |            18                   3.049038                     48            |
 |            19                   3.078785                     24            |
 |            20                   3.195007                     48            |
 |            21                   3.279471                     72            |
 |            22                   3.415606                      6            |
 |            23                   3.494742                     24            |
 |            24                   3.520726                     48            |
 |            25                   3.622797                     36            |
 |            26                   3.697502                     56            |
 |            27                   3.722070                     24            |
 |            28                   3.818763                     24            |
 |            29                   3.889706                     72            |
 |            30                   3.913068                     48            |
 |            31                   4.005153                     24            |
 |            32                   4.072850                     48            |
 |            33                   4.183246                     24            |
 |            34                   4.248106                     72            |
 |            35                   4.269507                     30            |
 |            36                   4.354060                     72            |
 +----------------------------------------------------------------------------+
 | The b-vectors are chosen automatically                                     |
 | Shell:  1 w_b    0.6857322      (Ang^2)                                    |
 | The following shells are used:   1                                         |
 +----------------------------------------------------------------------------+
 |                        Shell   # Nearest-Neighbours                        |
 |                        -----   --------------------                        |
 |                          1               8                                 |
 +----------------------------------------------------------------------------+
 | Completeness relation is fully satisfied [Eq. (B1), PRB 56, 12847 (1997)]  |
 +----------------------------------------------------------------------------+
 |                  b_k Vectors (Ang^-1) and Weights (Ang^2)                  |
 |                  ----------------------------------------                  |
 |            No.         b_k(x)      b_k(y)      b_k(z)        w_b           |
 |            ---        --------------------------------     --------        |
 |             1        -0.426951    0.426951   -0.426951     0.685732        |
 |             2         0.426951    0.426951    0.426951     0.685732        |
 |             3        -0.426951   -0.426951    0.426951     0.685732        |
 |             4        -0.426951    0.426951    0.426951     0.685732        |
 |             5         0.426951   -0.426951    0.426951     0.685732        |
 |             6        -0.426951   -0.426951   -0.426951     0.685732        |
 |             7         0.426951    0.426951   -0.426951     0.685732        |
 |             8         0.426951   -0.426951   -0.426951     0.685732        |
 +----------------------------------------------------------------------------+
 |                           b_k Directions (Ang^-1)                          |
 |                           -----------------------                          |
 |            No.           x           y           z                         |
 |            ---        --------------------------------                     |
 |             1        -0.426951    0.426951   -0.426951                     |
 |             2         0.426951    0.426951    0.426951                     |
 |             3        -0.426951   -0.426951    0.426951                     |
 |             4        -0.426951    0.426951    0.426951                     |
 +----------------------------------------------------------------------------+
  
 Time to get kmesh              0.008 (sec)

 *------------------------------- DISENTANGLE --------------------------------*
 +----------------------------------------------------------------------------+
 |                              Energy  Windows                               |
 |                              ---------------                               |
 |                   Outer:   -0.54120  to   22.02633  (eV)                   |
 |                   Inner:   -3.00000  to   13.50000  (eV)                   |
 +----------------------------------------------------------------------------+
 |                        K-points with Frozen States                         |
 |                        ---------------------------                         |
 |     1     2     3     4     5     6     7     8     9    10    11    12    |
 |    13    14    15    16    17    18    19    20    21    22    23    24    |
 |    25    26    27                                                          |
 +----------------------------------------------------------------------------+
   Number of target bands to extract:    4
 +----------------------------------------------------------------------------+
 |                                  Windows                                   |
 |                                  -------                                   |
 |               K-point      Ndimwin     Ndimfroz    Nfirstwin               |
 |               ----------------------------------------------               |
 |                   1            5            1           1                  |
 |                   2            5            2           1                  |
 |                   3            5            2           1                  |
 |                   4            5            2           1                  |
 |                   5            5            2           1                  |
 |                   6            5            3           1                  |
 |                   7            5            2           1                  |
 |                   8            5            3           1                  |
 |                   9            5            2           1                  |
 |                  10            5            2           1                  |
 |                  11            5            2           1                  |
 |                  12            5            3           1                  |
 |                  13            5            2           1                  |
 |                  14            5            2           1                  |
 |                  15            5            3           1                  |
 |                  16            5            3           1                  |
 |                  17            5            3           1                  |
 |                  18            5            3           1                  |
 |                  19            5            2           1                  |
 |                  20            5            3           1                  |
 |                  21            5            2           1                  |
 |                  22            5            3           1                  |
 |                  23            5            3           1                  |
 |                  24            5            3           1                  |
 |                  25            5            2           1                  |
 |                  26            5            3           1                  |
 |                  27            5            2           1                  |
 +----------------------------------------------------------------------------+

                   Unitarised projection of Wannier functions                  
                   ------------------------------------------                  
   A_mn = <psi_m|g_n> --> S = A.A^+ --> U = S^-1/2.A
   In dis_project... done
   Using an inner window (linner = T)
   In dis_proj_froz... done

                   Extraction of optimally-connected subspace                  
                   ------------------------------------------                  
 +---------------------------------------------------------------------+<-- DIS
 |  Iter     Omega_I(i-1)      Omega_I(i)      Delta (frac.)    Time   |<-- DIS
 +---------------------------------------------------------------------+<-- DIS
       1       4.91540081       4.91540081       0.000E+00      0.00    <-- DIS
       2       4.91540081       4.91540081       4.441E-16      0.00    <-- DIS
       3       4.91540081       4.91540081       0.000E+00      0.00    <-- DIS

             <<<      Delta < 1.000E-10  over  3 iterations     >>>
             <<< Disentanglement convergence criteria satisfied >>>

        Final Omega_I     4.91540081 (Ang^2)

 +----------------------------------------------------------------------------+


 Writing checkpoint file pb.chk... done

 Time to disentangle            0.002 (sec)
 
 *------------------------------- WANNIERISE ---------------------------------*
 +--------------------------------------------------------------------+<-- CONV
 | Iter  Delta Spread     RMS Gradient      Spread (Ang^2)      Time  |<-- CONV
 +--------------------------------------------------------------------+<-- CONV
 
 ------------------------------------------------------------------------------
 Initial State
  WF centre and spread    1  (  0.404681,  0.404681,  0.404681 )     1.59500545
  WF centre and spread    2  (  0.404681, -0.404681, -0.404681 )     1.59500545
  WF centre and spread    3  ( -0.404681,  0.404681, -0.404681 )     1.59500545
  WF centre and spread    4  ( -0.404681, -0.404681,  0.404681 )     1.59500546
  Sum of centres and spreads (  0.000000,  0.000000, -0.000000 )     6.38002182
 
      0     0.638E+01     0.0000000000        6.3800218581       0.01  <-- CONV
        O_D=      0.0507871 O_OD=      1.4138339 O_TOT=      6.3800219 <-- SPRD
 ------------------------------------------------------------------------------
 Cycle:      1
  WF centre and spread    1  (  0.404532,  0.404532,  0.404532 )     1.58369441
  WF centre and spread    2  (  0.404532, -0.404532, -0.404532 )     1.58369441
  WF centre and spread    3  ( -0.404532,  0.404532, -0.404532 )     1.58369441
  WF centre and spread    4  ( -0.404532, -0.404532,  0.404532 )     1.58369441
  Sum of centres and spreads (  0.000000,  0.000000, -0.000000 )     6.33477764
 
      1    -0.452E-01     0.2411199021        6.3347776765       0.01  <-- CONV
        O_D=      0.0076837 O_OD=      1.4116932 O_TOT=      6.3347777 <-- SPRD
 Delta: O_D= -0.4310346E-01 O_OD= -0.2140720E-02 O_TOT= -0.4524418E-01 <-- DLTA
 ------------------------------------------------------------------------------
 Cycle:      2
  WF centre and spread    1  (  0.404588,  0.404588,  0.404588 )     1.58354867
  WF centre and spread    2  (  0.404588, -0.404588, -0.404588 )     1.58354867
  WF centre and spread    3  ( -0.404588,  0.404588, -0.404588 )     1.58354867
  WF centre and spread    4  ( -0.404588, -0.404588,  0.404588 )     1.58354867
  Sum of centres and spreads ( -0.000000,  0.000000, -0.000000 )     6.33419468
 
      2    -0.583E-03     0.0317378178        6.3341947143       0.01  <-- CONV
        O_D=      0.0074140 O_OD=      1.4113799 O_TOT=      6.3341947 <-- SPRD
 Delta: O_D= -0.2696559E-03 O_OD= -0.3133063E-03 O_TOT= -0.5829622E-03 <-- DLTA
 ------------------------------------------------------------------------------
 Cycle:      3
  WF centre and spread    1  (  0.404624,  0.404624,  0.404624 )     1.58353735
  WF centre and spread    2  (  0.404624, -0.404624, -0.404624 )     1.58353735
  WF centre and spread    3  ( -0.404624,  0.404624, -0.404624 )     1.58353735
  WF centre and spread    4  ( -0.404624, -0.404624,  0.404624 )     1.58353735
  Sum of centres and spreads ( -0.000000,  0.000000, -0.000000 )     6.33414939
 
      3    -0.453E-04     0.0077075050        6.3341494295       0.01  <-- CONV
        O_D=      0.0074433 O_OD=      1.4113053 O_TOT=      6.3341494 <-- SPRD
 Delta: O_D=  0.2927368E-04 O_OD= -0.7455846E-04 O_TOT= -0.4528478E-04 <-- DLTA
 ------------------------------------------------------------------------------
 Cycle:      4
  WF centre and spread    1  (  0.404639,  0.404639,  0.404639 )     1.58353505
  WF centre and spread    2  (  0.404639, -0.404639, -0.404639 )     1.58353505
  WF centre and spread    3  ( -0.404639,  0.404639, -0.404639 )     1.58353505
  WF centre and spread    4  ( -0.404639, -0.404639,  0.404639 )     1.58353506
  Sum of centres and spreads ( -0.000000,  0.000000, -0.000000 )     6.33414020
 
      4    -0.919E-05     0.0036879340        6.3341402401       0.01  <-- CONV
        O_D=      0.0074510 O_OD=      1.4112884 O_TOT=      6.3341402 <-- SPRD
 Delta: O_D=  0.7752496E-05 O_OD= -0.1694186E-04 O_TOT= -0.9189368E-05 <-- DLTA
 ------------------------------------------------------------------------------
 Cycle:      5
  WF centre and spread    1  (  0.404642,  0.404642,  0.404642 )     1.58353483
  WF centre and spread    2  (  0.404642, -0.404642, -0.404642 )     1.58353483
  WF centre and spread    3  ( -0.404642,  0.404642, -0.404642 )     1.58353483
  WF centre and spread    4  ( -0.404642, -0.404642,  0.404642 )     1.58353483
  Sum of centres and spreads ( -0.000000,  0.000000, -0.000000 )     6.33413932
 
      5    -0.884E-06     0.0010451910        6.3341393558       0.01  <-- CONV
        O_D=      0.0074511 O_OD=      1.4112874 O_TOT=      6.3341394 <-- SPRD
 Delta: O_D=  0.6675273E-07 O_OD= -0.9510804E-06 O_TOT= -0.8843276E-06 <-- DLTA
 ------------------------------------------------------------------------------
 Cycle:      6
  WF centre and spread    1  (  0.404642,  0.404642,  0.404642 )     1.58353482
  WF centre and spread    2  (  0.404642, -0.404642, -0.404642 )     1.58353482
  WF centre and spread    3  ( -0.404642,  0.404642, -0.404642 )     1.58353482
  WF centre and spread    4  ( -0.404642, -0.404642,  0.404642 )     1.58353483
  Sum of centres and spreads ( -0.000000,  0.000000, -0.000000 )     6.33413928
 
      6    -0.316E-07     0.0002162236        6.3341393243       0.01  <-- CONV
        O_D=      0.0074514 O_OD=      1.4112871 O_TOT=      6.3341393 <-- SPRD
 Delta: O_D=  0.3358272E-06 O_OD= -0.3673790E-06 O_TOT= -0.3155184E-07 <-- DLTA
 ------------------------------------------------------------------------------
 Cycle:      7
  WF centre and spread    1  (  0.404642,  0.404642,  0.404642 )     1.58353482
  WF centre and spread    2  (  0.404642, -0.404642, -0.404642 )     1.58353482
  WF centre and spread    3  ( -0.404642,  0.404642, -0.404642 )     1.58353482
  WF centre and spread    4  ( -0.404642, -0.404642,  0.404642 )     1.58353483
  Sum of centres and spreads ( -0.000000,  0.000000, -0.000000 )     6.33413928
 
      7    -0.681E-09     0.0000296720        6.3341393236       0.01  <-- CONV
        O_D=      0.0074516 O_OD=      1.4112870 O_TOT=      6.3341393 <-- SPRD
 Delta: O_D=  0.1227380E-06 O_OD= -0.1234189E-06 O_TOT= -0.6809433E-09 <-- DLTA
 ------------------------------------------------------------------------------
 Cycle:      8
  WF centre and spread    1  (  0.404642,  0.404642,  0.404642 )     1.58353482
  WF centre and spread    2  (  0.404642, -0.404642, -0.404642 )     1.58353482
  WF centre and spread    3  ( -0.404642,  0.404642, -0.404642 )     1.58353482
  WF centre and spread    4  ( -0.404642, -0.404642,  0.404642 )     1.58353483
  Sum of centres and spreads ( -0.000000,  0.000000, -0.000000 )     6.33413928
 
      8    -0.239E-10     0.0000059657        6.3341393236       0.01  <-- CONV
        O_D=      0.0074516 O_OD=      1.4112869 O_TOT=      6.3341393 <-- SPRD
 Delta: O_D=  0.1189380E-07 O_OD= -0.1191767E-07 O_TOT= -0.2387068E-10 <-- DLTA
 ------------------------------------------------------------------------------
 Cycle:      9
  WF centre and spread    1  (  0.404642,  0.404642,  0.404642 )     1.58353482
  WF centre and spread    2  (  0.404642, -0.404642, -0.404642 )     1.58353482
  WF centre and spread    3  ( -0.404642,  0.404642, -0.404642 )     1.58353482
  WF centre and spread    4  ( -0.404642, -0.404642,  0.404642 )     1.58353483
  Sum of centres and spreads ( -0.000000,  0.000000, -0.000000 )     6.33413928
 
      9    -0.648E-13     0.0000008370        6.3341393236       0.01  <-- CONV
        O_D=      0.0074516 O_OD=      1.4112869 O_TOT=      6.3341393 <-- SPRD
 Delta: O_D= -0.2132983E-10 O_OD=  0.2126477E-10 O_TOT= -0.6483702E-13 <-- DLTA
 ------------------------------------------------------------------------------
 Cycle:     10
  WF centre and spread    1  (  0.404642,  0.404642,  0.404642 )     1.58353482
  WF centre and spread    2  (  0.404642, -0.404642, -0.404642 )     1.58353482
  WF centre and spread    3  ( -0.404642,  0.404642, -0.404642 )     1.58353482
  WF centre and spread    4  ( -0.404642, -0.404642,  0.404642 )     1.58353483
  Sum of centres and spreads ( -0.000000,  0.000000, -0.000000 )     6.33413928
 
     10    -0.477E-12     0.0000007888        6.3341393236       0.01  <-- CONV
        O_D=      0.0074516 O_OD=      1.4112869 O_TOT=      6.3341393 <-- SPRD
 Delta: O_D= -0.3909121E-09 O_OD=  0.3904355E-09 O_TOT= -0.4769518E-12 <-- DLTA
 ------------------------------------------------------------------------------
 Cycle:     11
  WF centre and spread    1  (  0.404642,  0.404642,  0.404642 )     1.58353482
  WF centre and spread    2  (  0.404642, -0.404642, -0.404642 )     1.58353482
  WF centre and spread    3  ( -0.404642,  0.404642, -0.404642 )     1.58353482
  WF centre and spread    4  ( -0.404642, -0.404642,  0.404642 )     1.58353483
  Sum of centres and spreads ( -0.000000,  0.000000, -0.000000 )     6.33413928
 
     11    -0.799E-14     0.0000002362        6.3341393236       0.01  <-- CONV
        O_D=      0.0074516 O_OD=      1.4112869 O_TOT=      6.3341393 <-- SPRD
 Delta: O_D=  0.3101596E-10 O_OD= -0.3102452E-10 O_TOT= -0.7993606E-14 <-- DLTA
 ------------------------------------------------------------------------------
 Cycle:     12
  WF centre and spread    1  (  0.404642,  0.404642,  0.404642 )     1.58353482
  WF centre and spread    2  (  0.404642, -0.404642, -0.404642 )     1.58353482
  WF centre and spread    3  ( -0.404642,  0.404642, -0.404642 )     1.58353482
  WF centre and spread    4  ( -0.404642, -0.404642,  0.404642 )     1.58353483
  Sum of centres and spreads ( -0.000000,  0.000000, -0.000000 )     6.33413928
 
     12    -0.977E-14     0.0000002168        6.3341393236       0.01  <-- CONV
        O_D=      0.0074516 O_OD=      1.4112869 O_TOT=      6.3341393 <-- SPRD
 Delta: O_D=  0.4395426E-10 O_OD= -0.4396394E-10 O_TOT= -0.9769963E-14 <-- DLTA
 ------------------------------------------------------------------------------
 Cycle:     13
  WF centre and spread    1  (  0.404642,  0.404642,  0.404642 )     1.58353482
  WF centre and spread    2  (  0.404642, -0.404642, -0.404642 )     1.58353482
  WF centre and spread    3  ( -0.404642,  0.404642, -0.404642 )     1.58353482
  WF centre and spread    4  ( -0.404642, -0.404642,  0.404642 )     1.58353483
  Sum of centres and spreads ( -0.000000,  0.000000, -0.000000 )     6.33413928
 
     13    -0.444E-14     0.0000001960        6.3341393236       0.01  <-- CONV
        O_D=      0.0074516 O_OD=      1.4112869 O_TOT=      6.3341393 <-- SPRD
 Delta: O_D=  0.2631851E-10 O_OD= -0.2632250E-10 O_TOT= -0.4440892E-14 <-- DLTA
 ------------------------------------------------------------------------------
 Cycle:     14
  WF centre and spread    1  (  0.404642,  0.404642,  0.404642 )     1.58353482
  WF centre and spread    2  (  0.404642, -0.404642, -0.404642 )     1.58353482
  WF centre and spread    3  ( -0.404642,  0.404642, -0.404642 )     1.58353482
  WF centre and spread    4  ( -0.404642, -0.404642,  0.404642 )     1.58353483
  Sum of centres and spreads ( -0.000000,  0.000000, -0.000000 )     6.33413928
 
     14     0.888E-15     0.0000001872        6.3341393236       0.01  <-- CONV
        O_D=      0.0074516 O_OD=      1.4112869 O_TOT=      6.3341393 <-- SPRD
 Delta: O_D=  0.2492627E-10 O_OD= -0.2492606E-10 O_TOT=  0.8881784E-15 <-- DLTA
 ------------------------------------------------------------------------------
 Cycle:     15
  WF centre and spread    1  (  0.404642,  0.404642,  0.404642 )     1.58353482
  WF centre and spread    2  (  0.404642, -0.404642, -0.404642 )     1.58353482
  WF centre and spread    3  ( -0.404642,  0.404642, -0.404642 )     1.58353482
  WF centre and spread    4  ( -0.404642, -0.404642,  0.404642 )     1.58353483
  Sum of centres and spreads ( -0.000000,  0.000000, -0.000000 )     6.33413928
 
     15    -0.107E-13     0.0000001790        6.3341393236       0.01  <-- CONV
        O_D=      0.0074516 O_OD=      1.4112869 O_TOT=      6.3341393 <-- SPRD
 Delta: O_D=  0.7102442E-10 O_OD= -0.7103496E-10 O_TOT= -0.1065814E-13 <-- DLTA
 ------------------------------------------------------------------------------
 Cycle:     16
  WF centre and spread    1  (  0.404642,  0.404642,  0.404642 )     1.58353482
  WF centre and spread    2  (  0.404642, -0.404642, -0.404642 )     1.58353482
  WF centre and spread    3  ( -0.404642,  0.404642, -0.404642 )     1.58353482
  WF centre and spread    4  ( -0.404642, -0.404642,  0.404642 )     1.58353483
  Sum of centres and spreads ( -0.000000,  0.000000, -0.000000 )     6.33413928
 
     16    -0.977E-14     0.0000001569        6.3341393236       0.01  <-- CONV
        O_D=      0.0074516 O_OD=      1.4112869 O_TOT=      6.3341393 <-- SPRD
 Delta: O_D=  0.7860181E-10 O_OD= -0.7861156E-10 O_TOT= -0.9769963E-14 <-- DLTA
 ------------------------------------------------------------------------------
 Cycle:     17
  WF centre and spread    1  (  0.404642,  0.404642,  0.404642 )     1.58353482
  WF centre and spread    2  (  0.404642, -0.404642, -0.404642 )     1.58353482
  WF centre and spread    3  ( -0.404642,  0.404642, -0.404642 )     1.58353482
  WF centre and spread    4  ( -0.404642, -0.404642,  0.404642 )     1.58353483
  Sum of centres and spreads ( -0.000000,  0.000000, -0.000000 )     6.33413928
 
     17     0.178E-14     0.0000001343        6.3341393236       0.01  <-- CONV
        O_D=      0.0074516 O_OD=      1.4112869 O_TOT=      6.3341393 <-- SPRD
 Delta: O_D=  0.5509675E-10 O_OD= -0.5509415E-10 O_TOT=  0.1776357E-14 <-- DLTA
 ------------------------------------------------------------------------------
 Cycle:     18
  WF centre and spread    1  (  0.404642,  0.404642,  0.404642 )     1.58353482
  WF centre and spread    2  (  0.404642, -0.404642, -0.404642 )     1.58353482
  WF centre and spread    3  ( -0.404642,  0.404642, -0.404642 )     1.58353482
  WF centre and spread    4  ( -0.404642, -0.404642,  0.404642 )     1.58353483
  Sum of centres and spreads ( -0.000000,  0.000000, -0.000000 )     6.33413928
 
     18    -0.799E-14     0.0000001200        6.3341393236       0.01  <-- CONV
        O_D=      0.0074516 O_OD=      1.4112869 O_TOT=      6.3341393 <-- SPRD
 Delta: O_D=  0.8548313E-10 O_OD= -0.8549184E-10 O_TOT= -0.7993606E-14 <-- DLTA
 ------------------------------------------------------------------------------
 Cycle:     19
  WF centre and spread    1  (  0.404642,  0.404642,  0.404642 )     1.58353482
  WF centre and spread    2  (  0.404642, -0.404642, -0.404642 )     1.58353482
  WF centre and spread    3  ( -0.404642,  0.404642, -0.404642 )     1.58353482
  WF centre and spread    4  ( -0.404642, -0.404642,  0.404642 )     1.58353483
  Sum of centres and spreads ( -0.000000,  0.000000, -0.000000 )     6.33413928
 
     19    -0.266E-14     0.0000001000        6.3341393236       0.02  <-- CONV
        O_D=      0.0074516 O_OD=      1.4112869 O_TOT=      6.3341393 <-- SPRD
 Delta: O_D=  0.1964460E-10 O_OD= -0.1964673E-10 O_TOT= -0.2664535E-14 <-- DLTA
 ------------------------------------------------------------------------------
 Cycle:     20
  WF centre and spread    1  (  0.404642,  0.404642,  0.404642 )     1.58353482
  WF centre and spread    2  (  0.404642, -0.404642, -0.404642 )     1.58353482
  WF centre and spread    3  ( -0.404642,  0.404642, -0.404642 )     1.58353482
  WF centre and spread    4  ( -0.404642, -0.404642,  0.404642 )     1.58353483
  Sum of centres and spreads ( -0.000000,  0.000000, -0.000000 )     6.33413928
 
     20    -0.178E-14     0.0000000965        6.3341393236       0.02  <-- CONV
        O_D=      0.0074516 O_OD=      1.4112869 O_TOT=      6.3341393 <-- SPRD
 Delta: O_D=  0.3741006E-10 O_OD= -0.3741141E-10 O_TOT= -0.1776357E-14 <-- DLTA
 ------------------------------------------------------------------------------
 Cycle:     21
  WF centre and spread    1  (  0.404642,  0.404642,  0.404642 )     1.58353482
  WF centre and spread    2  (  0.404642, -0.404642, -0.404642 )     1.58353482
  WF centre and spread    3  ( -0.404642,  0.404642, -0.404642 )     1.58353482
  WF centre and spread    4  ( -0.404642, -0.404642,  0.404642 )     1.58353483
  Sum of centres and spreads ( -0.000000,  0.000000, -0.000000 )     6.33413928
 
     21    -0.178E-14     0.0000000899        6.3341393236       0.02  <-- CONV
        O_D=      0.0074516 O_OD=      1.4112869 O_TOT=      6.3341393 <-- SPRD
 Delta: O_D=  0.5056522E-10 O_OD= -0.5056822E-10 O_TOT= -0.1776357E-14 <-- DLTA
 ------------------------------------------------------------------------------
 Cycle:     22
  WF centre and spread    1  (  0.404642,  0.404642,  0.404642 )     1.58353482
  WF centre and spread    2  (  0.404642, -0.404642, -0.404642 )     1.58353482
  WF centre and spread    3  ( -0.404642,  0.404642, -0.404642 )     1.58353482
  WF centre and spread    4  ( -0.404642, -0.404642,  0.404642 )     1.58353483
  Sum of centres and spreads ( -0.000000,  0.000000, -0.000000 )     6.33413928
 
     22    -0.355E-14     0.0000000811        6.3341393236       0.02  <-- CONV
        O_D=      0.0074516 O_OD=      1.4112869 O_TOT=      6.3341393 <-- SPRD
 Delta: O_D=  0.2893212E-10 O_OD= -0.2893508E-10 O_TOT= -0.3552714E-14 <-- DLTA
 ------------------------------------------------------------------------------
 Cycle:     23
  WF centre and spread    1  (  0.404642,  0.404642,  0.404642 )     1.58353482
  WF centre and spread    2  (  0.404642, -0.404642, -0.404642 )     1.58353482
  WF centre and spread    3  ( -0.404642,  0.404642, -0.404642 )     1.58353482
  WF centre and spread    4  ( -0.404642, -0.404642,  0.404642 )     1.58353483
  Sum of centres and spreads ( -0.000000,  0.000000, -0.000000 )     6.33413928
 
     23     0.000E+00     0.0000000761        6.3341393236       0.02  <-- CONV
        O_D=      0.0074516 O_OD=      1.4112869 O_TOT=      6.3341393 <-- SPRD
 Delta: O_D=  0.1884452E-10 O_OD= -0.1884470E-10 O_TOT=  0.0000000E+00 <-- DLTA
 ------------------------------------------------------------------------------
 Cycle:     24
  WF centre and spread    1  (  0.404642,  0.404642,  0.404642 )     1.58353482
  WF centre and spread    2  (  0.404642, -0.404642, -0.404642 )     1.58353482
  WF centre and spread    3  ( -0.404642,  0.404642, -0.404642 )     1.58353482
  WF centre and spread    4  ( -0.404642, -0.404642,  0.404642 )     1.58353483
  Sum of centres and spreads ( -0.000000,  0.000000, -0.000000 )     6.33413928
 
     24     0.266E-14     0.0000000729        6.3341393236       0.02  <-- CONV
        O_D=      0.0074516 O_OD=      1.4112869 O_TOT=      6.3341393 <-- SPRD
 Delta: O_D=  0.5966538E-10 O_OD= -0.5966316E-10 O_TOT=  0.2664535E-14 <-- DLTA
 ------------------------------------------------------------------------------
 Cycle:     25
  WF centre and spread    1  (  0.404642,  0.404642,  0.404642 )     1.58353482
  WF centre and spread    2  (  0.404642, -0.404642, -0.404642 )     1.58353482
  WF centre and spread    3  ( -0.404642,  0.404642, -0.404642 )     1.58353482
  WF centre and spread    4  ( -0.404642, -0.404642,  0.404642 )     1.58353483
  Sum of centres and spreads ( -0.000000,  0.000000, -0.000000 )     6.33413928
 
     25    -0.266E-14     0.0000000630        6.3341393236       0.02  <-- CONV
        O_D=      0.0074516 O_OD=      1.4112869 O_TOT=      6.3341393 <-- SPRD
 Delta: O_D=  0.1376929E-10 O_OD= -0.1377165E-10 O_TOT= -0.2664535E-14 <-- DLTA
 ------------------------------------------------------------------------------
 Cycle:     26
  WF centre and spread    1  (  0.404642,  0.404642,  0.404642 )     1.58353482
  WF centre and spread    2  (  0.404642, -0.404642, -0.404642 )     1.58353482
  WF centre and spread    3  ( -0.404642,  0.404642, -0.404642 )     1.58353482
  WF centre and spread    4  ( -0.404642, -0.404642,  0.404642 )     1.58353483
  Sum of centres and spreads ( -0.000000,  0.000000, -0.000000 )     6.33413928
 
     26    -0.888E-15     0.0000000609        6.3341393236       0.02  <-- CONV
        O_D=      0.0074516 O_OD=      1.4112869 O_TOT=      6.3341393 <-- SPRD
 Delta: O_D=  0.3569351E-11 O_OD= -0.3569811E-11 O_TOT= -0.8881784E-15 <-- DLTA
 ------------------------------------------------------------------------------
 Cycle:     27
  WF centre and spread    1  (  0.404642,  0.404642,  0.404642 )     1.58353482
  WF centre and spread    2  (  0.404642, -0.404642, -0.404642 )     1.58353482
  WF centre and spread    3  ( -0.404642,  0.404642, -0.404642 )     1.58353482
  WF centre and spread    4  ( -0.404642, -0.404642,  0.404642 )     1.58353483
  Sum of centres and spreads ( -0.000000,  0.000000, -0.000000 )     6.33413928
 
     27     0.533E-14     0.0000000603        6.3341393236       0.02  <-- CONV
        O_D=      0.0074516 O_OD=      1.4112869 O_TOT=      6.3341393 <-- SPRD
 Delta: O_D=  0.6928939E-11 O_OD= -0.6924461E-11 O_TOT=  0.5329071E-14 <-- DLTA
 ------------------------------------------------------------------------------
 Cycle:     28
  WF centre and spread    1  (  0.404642,  0.404642,  0.404642 )     1.58353482
  WF centre and spread    2  (  0.404642, -0.404642, -0.404642 )     1.58353482
  WF centre and spread    3  ( -0.404642,  0.404642, -0.404642 )     1.58353482
  WF centre and spread    4  ( -0.404642, -0.404642,  0.404642 )     1.58353483
  Sum of centres and spreads ( -0.000000,  0.000000, -0.000000 )     6.33413928
 
     28    -0.888E-15     0.0000000593        6.3341393236       0.02  <-- CONV
        O_D=      0.0074516 O_OD=      1.4112869 O_TOT=      6.3341393 <-- SPRD
 Delta: O_D=  0.1046321E-10 O_OD= -0.1046363E-10 O_TOT= -0.8881784E-15 <-- DLTA
 ------------------------------------------------------------------------------
 Cycle:     29
  WF centre and spread    1  (  0.404642,  0.404642,  0.404642 )     1.58353482
  WF centre and spread    2  (  0.404642, -0.404642, -0.404642 )     1.58353482
  WF centre and spread    3  ( -0.404642,  0.404642, -0.404642 )     1.58353482
  WF centre and spread    4  ( -0.404642, -0.404642,  0.404642 )     1.58353483
  Sum of centres and spreads ( -0.000000,  0.000000, -0.000000 )     6.33413928
 
     29    -0.888E-15     0.0000000577        6.3341393236       0.02  <-- CONV
        O_D=      0.0074516 O_OD=      1.4112869 O_TOT=      6.3341393 <-- SPRD
 Delta: O_D=  0.6076123E-10 O_OD= -0.6076162E-10 O_TOT= -0.8881784E-15 <-- DLTA
 ------------------------------------------------------------------------------
 Cycle:     30
  WF centre and spread    1  (  0.404642,  0.404642,  0.404642 )     1.58353482
  WF centre and spread    2  (  0.404642, -0.404642, -0.404642 )     1.58353482
  WF centre and spread    3  ( -0.404642,  0.404642, -0.404642 )     1.58353482
  WF centre and spread    4  ( -0.404642, -0.404642,  0.404642 )     1.58353483
  Sum of centres and spreads ( -0.000000,  0.000000, -0.000000 )     6.33413928
 
     30    -0.178E-14     0.0000000484        6.3341393236       0.02  <-- CONV
        O_D=      0.0074516 O_OD=      1.4112869 O_TOT=      6.3341393 <-- SPRD
 Delta: O_D=  0.5379059E-10 O_OD= -0.5379253E-10 O_TOT= -0.1776357E-14 <-- DLTA
 ------------------------------------------------------------------------------
 Cycle:     31
  WF centre and spread    1  (  0.404642,  0.404642,  0.404642 )     1.58353482
  WF centre and spread    2  (  0.404642, -0.404642, -0.404642 )     1.58353482
  WF centre and spread    3  ( -0.404642,  0.404642, -0.404642 )     1.58353482
  WF centre and spread    4  ( -0.404642, -0.404642,  0.404642 )     1.58353483
  Sum of centres and spreads ( -0.000000,  0.000000, -0.000000 )     6.33413928
 
     31    -0.888E-15     0.0000000403        6.3341393236       0.02  <-- CONV
        O_D=      0.0074516 O_OD=      1.4112869 O_TOT=      6.3341393 <-- SPRD
 Delta: O_D=  0.9372478E-11 O_OD= -0.9372725E-11 O_TOT= -0.8881784E-15 <-- DLTA
 ------------------------------------------------------------------------------
 Cycle:     32
  WF centre and spread    1  (  0.404642,  0.404642,  0.404642 )     1.58353482
  WF centre and spread    2  (  0.404642, -0.404642, -0.404642 )     1.58353482
  WF centre and spread    3  ( -0.404642,  0.404642, -0.404642 )     1.58353482
  WF centre and spread    4  ( -0.404642, -0.404642,  0.404642 )     1.58353483
  Sum of centres and spreads ( -0.000000,  0.000000, -0.000000 )     6.33413928
 
     32     0.000E+00     0.0000000390        6.3341393236       0.02  <-- CONV
        O_D=      0.0074516 O_OD=      1.4112869 O_TOT=      6.3341393 <-- SPRD
 Delta: O_D=  0.1784987E-10 O_OD= -0.1785150E-10 O_TOT=  0.0000000E+00 <-- DLTA
 ------------------------------------------------------------------------------
 Cycle:     33
  WF centre and spread    1  (  0.404642,  0.404642,  0.404642 )     1.58353482
  WF centre and spread    2  (  0.404642, -0.404642, -0.404642 )     1.58353482
  WF centre and spread    3  ( -0.404642,  0.404642, -0.404642 )     1.58353482
  WF centre and spread    4  ( -0.404642, -0.404642,  0.404642 )     1.58353483
  Sum of centres and spreads ( -0.000000,  0.000000, -0.000000 )     6.33413928
 
     33    -0.888E-15     0.0000000365        6.3341393236       0.02  <-- CONV
        O_D=      0.0074516 O_OD=      1.4112869 O_TOT=      6.3341393 <-- SPRD
 Delta: O_D=  0.1381862E-11 O_OD= -0.1381339E-11 O_TOT= -0.8881784E-15 <-- DLTA
 ------------------------------------------------------------------------------
 Cycle:     34
  WF centre and spread    1  (  0.404642,  0.404642,  0.404642 )     1.58353482
  WF centre and spread    2  (  0.404642, -0.404642, -0.404642 )     1.58353482
  WF centre and spread    3  ( -0.404642,  0.404642, -0.404642 )     1.58353482
  WF centre and spread    4  ( -0.404642, -0.404642,  0.404642 )     1.58353483
  Sum of centres and spreads ( -0.000000,  0.000000, -0.000000 )     6.33413928
 
     34     0.888E-15     0.0000000363        6.3341393236       0.02  <-- CONV
        O_D=      0.0074516 O_OD=      1.4112869 O_TOT=      6.3341393 <-- SPRD
 Delta: O_D=  0.3238711E-10 O_OD= -0.3238698E-10 O_TOT=  0.8881784E-15 <-- DLTA
 ------------------------------------------------------------------------------
 Cycle:     35
  WF centre and spread    1  (  0.404642,  0.404642,  0.404642 )     1.58353482
  WF centre and spread    2  (  0.404642, -0.404642, -0.404642 )     1.58353482
  WF centre and spread    3  ( -0.404642,  0.404642, -0.404642 )     1.58353482
  WF centre and spread    4  ( -0.404642, -0.404642,  0.404642 )     1.58353483
  Sum of centres and spreads ( -0.000000,  0.000000, -0.000000 )     6.33413928
 
     35    -0.178E-14     0.0000000317        6.3341393236       0.02  <-- CONV
        O_D=      0.0074516 O_OD=      1.4112869 O_TOT=      6.3341393 <-- SPRD
 Delta: O_D=  0.3225686E-10 O_OD= -0.3225820E-10 O_TOT= -0.1776357E-14 <-- DLTA
 ------------------------------------------------------------------------------
 Cycle:     36
  WF centre and spread    1  (  0.404642,  0.404642,  0.404642 )     1.58353482
  WF centre and spread    2  (  0.404642, -0.404642, -0.404642 )     1.58353482
  WF centre and spread    3  ( -0.404642,  0.404642, -0.404642 )     1.58353482
  WF centre and spread    4  ( -0.404642, -0.404642,  0.404642 )     1.58353483
  Sum of centres and spreads ( -0.000000,  0.000000, -0.000000 )     6.33413928
 
     36     0.444E-14     0.0000000272        6.3341393236       0.02  <-- CONV
        O_D=      0.0074516 O_OD=      1.4112869 O_TOT=      6.3341393 <-- SPRD
 Delta: O_D=  0.1012014E-11 O_OD= -0.1008305E-11 O_TOT=  0.4440892E-14 <-- DLTA
 ------------------------------------------------------------------------------
 Cycle:     37
  WF centre and spread    1  (  0.404642,  0.404642,  0.404642 )     1.58353482
  WF centre and spread    2  (  0.404642, -0.404642, -0.404642 )     1.58353482
  WF centre and spread    3  ( -0.404642,  0.404642, -0.404642 )     1.58353482
  WF centre and spread    4  ( -0.404642, -0.404642,  0.404642 )     1.58353483
  Sum of centres and spreads ( -0.000000,  0.000000, -0.000000 )     6.33413928
 
     37    -0.888E-15     0.0000000271        6.3341393236       0.02  <-- CONV
        O_D=      0.0074516 O_OD=      1.4112869 O_TOT=      6.3341393 <-- SPRD
 Delta: O_D=  0.6473965E-11 O_OD= -0.6474599E-11 O_TOT= -0.8881784E-15 <-- DLTA
 ------------------------------------------------------------------------------
 Cycle:     38
  WF centre and spread    1  (  0.404642,  0.404642,  0.404642 )     1.58353482
  WF centre and spread    2  (  0.404642, -0.404642, -0.404642 )     1.58353482
  WF centre and spread    3  ( -0.404642,  0.404642, -0.404642 )     1.58353482
  WF centre and spread    4  ( -0.404642, -0.404642,  0.404642 )     1.58353483
  Sum of centres and spreads ( -0.000000,  0.000000, -0.000000 )     6.33413928
 
     38    -0.178E-14     0.0000000262        6.3341393236       0.02  <-- CONV
        O_D=      0.0074516 O_OD=      1.4112869 O_TOT=      6.3341393 <-- SPRD
 Delta: O_D=  0.1233017E-10 O_OD= -0.1233125E-10 O_TOT= -0.1776357E-14 <-- DLTA
 ------------------------------------------------------------------------------
 Cycle:     39
  WF centre and spread    1  (  0.404642,  0.404642,  0.404642 )     1.58353482
  WF centre and spread    2  (  0.404642, -0.404642, -0.404642 )     1.58353482
  WF centre and spread    3  ( -0.404642,  0.404642, -0.404642 )     1.58353482
  WF centre and spread    4  ( -0.404642, -0.404642,  0.404642 )     1.58353483
  Sum of centres and spreads ( -0.000000,  0.000000, -0.000000 )     6.33413928
 
     39     0.888E-15     0.0000000245        6.3341393236       0.02  <-- CONV
        O_D=      0.0074516 O_OD=      1.4112869 O_TOT=      6.3341393 <-- SPRD
 Delta: O_D=  0.6717162E-12 O_OD= -0.6712408E-12 O_TOT=  0.8881784E-15 <-- DLTA
 ------------------------------------------------------------------------------
 Cycle:     40
  WF centre and spread    1  (  0.404642,  0.404642,  0.404642 )     1.58353482
  WF centre and spread    2  (  0.404642, -0.404642, -0.404642 )     1.58353482
  WF centre and spread    3  ( -0.404642,  0.404642, -0.404642 )     1.58353482
  WF centre and spread    4  ( -0.404642, -0.404642,  0.404642 )     1.58353483
  Sum of centres and spreads ( -0.000000,  0.000000, -0.000000 )     6.33413928
 
     40    -0.888E-15     0.0000000244        6.3341393236       0.02  <-- CONV
        O_D=      0.0074516 O_OD=      1.4112869 O_TOT=      6.3341393 <-- SPRD
 Delta: O_D=  0.2242602E-10 O_OD= -0.2242762E-10 O_TOT= -0.8881784E-15 <-- DLTA
 ------------------------------------------------------------------------------
 Cycle:     41
  WF centre and spread    1  (  0.404642,  0.404642,  0.404642 )     1.58353482
  WF centre and spread    2  (  0.404642, -0.404642, -0.404642 )     1.58353482
  WF centre and spread    3  ( -0.404642,  0.404642, -0.404642 )     1.58353482
  WF centre and spread    4  ( -0.404642, -0.404642,  0.404642 )     1.58353483
  Sum of centres and spreads ( -0.000000,  0.000000, -0.000000 )     6.33413928
 
     41    -0.178E-14     0.0000000214        6.3341393236       0.02  <-- CONV
        O_D=      0.0074516 O_OD=      1.4112869 O_TOT=      6.3341393 <-- SPRD
 Delta: O_D=  0.2235119E-10 O_OD= -0.2235234E-10 O_TOT= -0.1776357E-14 <-- DLTA
 ------------------------------------------------------------------------------
 Cycle:     42
  WF centre and spread    1  (  0.404642,  0.404642,  0.404642 )     1.58353482
  WF centre and spread    2  (  0.404642, -0.404642, -0.404642 )     1.58353482
  WF centre and spread    3  ( -0.404642,  0.404642, -0.404642 )     1.58353482
  WF centre and spread    4  ( -0.404642, -0.404642,  0.404642 )     1.58353483
  Sum of centres and spreads ( -0.000000,  0.000000, -0.000000 )     6.33413928
 
     42    -0.178E-14     0.0000000184        6.3341393236       0.02  <-- CONV
        O_D=      0.0074516 O_OD=      1.4112869 O_TOT=      6.3341393 <-- SPRD
 Delta: O_D=  0.4123282E-12 O_OD= -0.4134471E-12 O_TOT= -0.1776357E-14 <-- DLTA
 ------------------------------------------------------------------------------
 Cycle:     43
  WF centre and spread    1  (  0.404642,  0.404642,  0.404642 )     1.58353482
  WF centre and spread    2  (  0.404642, -0.404642, -0.404642 )     1.58353482
  WF centre and spread    3  ( -0.404642,  0.404642, -0.404642 )     1.58353482
  WF centre and spread    4  ( -0.404642, -0.404642,  0.404642 )     1.58353483
  Sum of centres and spreads ( -0.000000,  0.000000, -0.000000 )     6.33413928
 
     43     0.355E-14     0.0000000183        6.3341393236       0.02  <-- CONV
        O_D=      0.0074516 O_OD=      1.4112869 O_TOT=      6.3341393 <-- SPRD
 Delta: O_D=  0.1085416E-13 O_OD= -0.8437695E-14 O_TOT=  0.3552714E-14 <-- DLTA
 ------------------------------------------------------------------------------
 Cycle:     44
  WF centre and spread    1  (  0.404642,  0.404642,  0.404642 )     1.58353482
  WF centre and spread    2  (  0.404642, -0.404642, -0.404642 )     1.58353482
  WF centre and spread    3  ( -0.404642,  0.404642, -0.404642 )     1.58353482
  WF centre and spread    4  ( -0.404642, -0.404642,  0.404642 )     1.58353483
  Sum of centres and spreads ( -0.000000,  0.000000, -0.000000 )     6.33413928
 
     44     0.000E+00     0.0000000183        6.3341393236       0.02  <-- CONV
        O_D=      0.0074516 O_OD=      1.4112869 O_TOT=      6.3341393 <-- SPRD
 Delta: O_D=  0.8888765E-11 O_OD= -0.8888001E-11 O_TOT=  0.0000000E+00 <-- DLTA
 ------------------------------------------------------------------------------
 Cycle:     45
  WF centre and spread    1  (  0.404642,  0.404642,  0.404642 )     1.58353482
  WF centre and spread    2  (  0.404642, -0.404642, -0.404642 )     1.58353482
  WF centre and spread    3  ( -0.404642,  0.404642, -0.404642 )     1.58353482
  WF centre and spread    4  ( -0.404642, -0.404642,  0.404642 )     1.58353483
  Sum of centres and spreads ( -0.000000,  0.000000, -0.000000 )     6.33413928
 
     45    -0.178E-14     0.0000000171        6.3341393236       0.02  <-- CONV
        O_D=      0.0074516 O_OD=      1.4112869 O_TOT=      6.3341393 <-- SPRD
 Delta: O_D=  0.1194359E-10 O_OD= -0.1194556E-10 O_TOT= -0.1776357E-14 <-- DLTA
 ------------------------------------------------------------------------------
 Cycle:     46
  WF centre and spread    1  (  0.404642,  0.404642,  0.404642 )     1.58353482
  WF centre and spread    2  (  0.404642, -0.404642, -0.404642 )     1.58353482
  WF centre and spread    3  ( -0.404642,  0.404642, -0.404642 )     1.58353482
  WF centre and spread    4  ( -0.404642, -0.404642,  0.404642 )     1.58353483
  Sum of centres and spreads ( -0.000000,  0.000000, -0.000000 )     6.33413928
 
     46    -0.178E-14     0.0000000155        6.3341393236       0.02  <-- CONV
        O_D=      0.0074516 O_OD=      1.4112869 O_TOT=      6.3341393 <-- SPRD
 Delta: O_D=  0.1362512E-10 O_OD= -0.1362643E-10 O_TOT= -0.1776357E-14 <-- DLTA
 ------------------------------------------------------------------------------
 Cycle:     47
  WF centre and spread    1  (  0.404642,  0.404642,  0.404642 )     1.58353482
  WF centre and spread    2  (  0.404642, -0.404642, -0.404642 )     1.58353482
  WF centre and spread    3  ( -0.404642,  0.404642, -0.404642 )     1.58353482
  WF centre and spread    4  ( -0.404642, -0.404642,  0.404642 )     1.58353483
  Sum of centres and spreads ( -0.000000,  0.000000, -0.000000 )     6.33413928
 
     47     0.622E-14     0.0000000138        6.3341393236       0.02  <-- CONV
        O_D=      0.0074516 O_OD=      1.4112869 O_TOT=      6.3341393 <-- SPRD
 Delta: O_D=  0.1394935E-12 O_OD= -0.1334488E-12 O_TOT=  0.6217249E-14 <-- DLTA
 ------------------------------------------------------------------------------
 Cycle:     48
  WF centre and spread    1  (  0.404642,  0.404642,  0.404642 )     1.58353482
  WF centre and spread    2  (  0.404642, -0.404642, -0.404642 )     1.58353482
  WF centre and spread    3  ( -0.404642,  0.404642, -0.404642 )     1.58353482
  WF centre and spread    4  ( -0.404642, -0.404642,  0.404642 )     1.58353483
  Sum of centres and spreads ( -0.000000,  0.000000, -0.000000 )     6.33413928
 
     48    -0.266E-14     0.0000000137        6.3341393236       0.02  <-- CONV
        O_D=      0.0074516 O_OD=      1.4112869 O_TOT=      6.3341393 <-- SPRD
 Delta: O_D=  0.3345931E-11 O_OD= -0.3349099E-11 O_TOT= -0.2664535E-14 <-- DLTA
 ------------------------------------------------------------------------------
 Cycle:     49
  WF centre and spread    1  (  0.404642,  0.404642,  0.404642 )     1.58353482
  WF centre and spread    2  (  0.404642, -0.404642, -0.404642 )     1.58353482
  WF centre and spread    3  ( -0.404642,  0.404642, -0.404642 )     1.58353482
  WF centre and spread    4  ( -0.404642, -0.404642,  0.404642 )     1.58353483
  Sum of centres and spreads ( -0.000000,  0.000000, -0.000000 )     6.33413928
 
     49    -0.622E-14     0.0000000133        6.3341393236       0.02  <-- CONV
        O_D=      0.0074516 O_OD=      1.4112869 O_TOT=      6.3341393 <-- SPRD
 Delta: O_D=  0.3239080E-11 O_OD= -0.3244960E-11 O_TOT= -0.6217249E-14 <-- DLTA
 ------------------------------------------------------------------------------
 Cycle:     50
  WF centre and spread    1  (  0.404642,  0.404642,  0.404642 )     1.58353482
  WF centre and spread    2  (  0.404642, -0.404642, -0.404642 )     1.58353482
  WF centre and spread    3  ( -0.404642,  0.404642, -0.404642 )     1.58353482
  WF centre and spread    4  ( -0.404642, -0.404642,  0.404642 )     1.58353483
  Sum of centres and spreads ( -0.000000,  0.000000, -0.000000 )     6.33413928
 
     50     0.355E-14     0.0000000129        6.3341393236       0.02  <-- CONV
        O_D=      0.0074516 O_OD=      1.4112869 O_TOT=      6.3341393 <-- SPRD
 Delta: O_D=  0.4432218E-14 O_OD= -0.1110223E-14 O_TOT=  0.3552714E-14 <-- DLTA
 ------------------------------------------------------------------------------
 Cycle:     51
  WF centre and spread    1  (  0.404642,  0.404642,  0.404642 )     1.58353482
  WF centre and spread    2  (  0.404642, -0.404642, -0.404642 )     1.58353482
  WF centre and spread    3  ( -0.404642,  0.404642, -0.404642 )     1.58353482
  WF centre and spread    4  ( -0.404642, -0.404642,  0.404642 )     1.58353483
  Sum of centres and spreads ( -0.000000,  0.000000, -0.000000 )     6.33413928
 
     51     0.000E+00     0.0000000129        6.3341393236       0.03  <-- CONV
        O_D=      0.0074516 O_OD=      1.4112869 O_TOT=      6.3341393 <-- SPRD
 Delta: O_D=  0.3135458E-11 O_OD= -0.3134826E-11 O_TOT=  0.0000000E+00 <-- DLTA
 ------------------------------------------------------------------------------
 Cycle:     52
  WF centre and spread    1  (  0.404642,  0.404642,  0.404642 )     1.58353482
  WF centre and spread    2  (  0.404642, -0.404642, -0.404642 )     1.58353482
  WF centre and spread    3  ( -0.404642,  0.404642, -0.404642 )     1.58353482
  WF centre and spread    4  ( -0.404642, -0.404642,  0.404642 )     1.58353483
  Sum of centres and spreads ( -0.000000,  0.000000, -0.000000 )     6.33413928
 
     52     0.444E-14     0.0000000125        6.3341393236       0.03  <-- CONV
        O_D=      0.0074516 O_OD=      1.4112869 O_TOT=      6.3341393 <-- SPRD
 Delta: O_D=  0.3033164E-14 O_OD=  0.1110223E-14 O_TOT=  0.4440892E-14 <-- DLTA
 ------------------------------------------------------------------------------
 Cycle:     53
  WF centre and spread    1  (  0.404642,  0.404642,  0.404642 )     1.58353482
  WF centre and spread    2  (  0.404642, -0.404642, -0.404642 )     1.58353482
  WF centre and spread    3  ( -0.404642,  0.404642, -0.404642 )     1.58353482
  WF centre and spread    4  ( -0.404642, -0.404642,  0.404642 )     1.58353483
  Sum of centres and spreads ( -0.000000,  0.000000, -0.000000 )     6.33413928
 
     53    -0.355E-14     0.0000000125        6.3341393236       0.03  <-- CONV
        O_D=      0.0074516 O_OD=      1.4112869 O_TOT=      6.3341393 <-- SPRD
 Delta: O_D=  0.3035151E-11 O_OD= -0.3039347E-11 O_TOT= -0.3552714E-14 <-- DLTA
 ------------------------------------------------------------------------------
 Cycle:     54
  WF centre and spread    1  (  0.404642,  0.404642,  0.404642 )     1.58353482
  WF centre and spread    2  (  0.404642, -0.404642, -0.404642 )     1.58353482
[...]
 Cycle:    277
  WF centre and spread    1  (  0.404642,  0.404642,  0.404642 )     1.58353482
  WF centre and spread    2  (  0.404642, -0.404642, -0.404642 )     1.58353482
  WF centre and spread    3  ( -0.404642,  0.404642, -0.404642 )     1.58353482
  WF centre and spread    4  ( -0.404642, -0.404642,  0.404642 )     1.58353483
  Sum of centres and spreads ( -0.000000,  0.000000, -0.000000 )     6.33413928
 
    277    -0.888E-15     0.0000000022        6.3341393236       0.12  <-- CONV
        O_D=      0.0074516 O_OD=      1.4112869 O_TOT=      6.3341393 <-- SPRD
 Delta: O_D=  0.2341877E-16 O_OD= -0.1332268E-14 O_TOT= -0.8881784E-15 <-- DLTA
 ------------------------------------------------------------------------------
 Cycle:    278
  WF centre and spread    1  (  0.404642,  0.404642,  0.404642 )     1.58353482
  WF centre and spread    2  (  0.404642, -0.404642, -0.404642 )     1.58353482
  WF centre and spread    3  ( -0.404642,  0.404642, -0.404642 )     1.58353482
  WF centre and spread    4  ( -0.404642, -0.404642,  0.404642 )     1.58353483
  Sum of centres and spreads ( -0.000000,  0.000000, -0.000000 )     6.33413928
 
    278    -0.888E-15     0.0000000022        6.3341393236       0.12  <-- CONV
        O_D=      0.0074516 O_OD=      1.4112869 O_TOT=      6.3341393 <-- SPRD
 Delta: O_D=  0.5204170E-17 O_OD= -0.1110223E-14 O_TOT= -0.8881784E-15 <-- DLTA
 ------------------------------------------------------------------------------
 Cycle:    279
  WF centre and spread    1  (  0.404642,  0.404642,  0.404642 )     1.58353482
  WF centre and spread    2  (  0.404642, -0.404642, -0.404642 )     1.58353482
  WF centre and spread    3  ( -0.404642,  0.404642, -0.404642 )     1.58353482
  WF centre and spread    4  ( -0.404642, -0.404642,  0.404642 )     1.58353483
  Sum of centres and spreads ( -0.000000,  0.000000, -0.000000 )     6.33413928
 
    279     0.000E+00     0.0000000022        6.3341393236       0.12  <-- CONV
        O_D=      0.0074516 O_OD=      1.4112869 O_TOT=      6.3341393 <-- SPRD
 Delta: O_D=  0.1647987E-16 O_OD=  0.4440892E-15 O_TOT=  0.0000000E+00 <-- DLTA
 ------------------------------------------------------------------------------
 Cycle:    280
  WF centre and spread    1  (  0.404642,  0.404642,  0.404642 )     1.58353482
  WF centre and spread    2  (  0.404642, -0.404642, -0.404642 )     1.58353482
  WF centre and spread    3  ( -0.404642,  0.404642, -0.404642 )     1.58353482
  WF centre and spread    4  ( -0.404642, -0.404642,  0.404642 )     1.58353483
  Sum of centres and spreads ( -0.000000,  0.000000, -0.000000 )     6.33413928
 
    280     0.000E+00     0.0000000022        6.3341393236       0.12  <-- CONV
        O_D=      0.0074516 O_OD=      1.4112869 O_TOT=      6.3341393 <-- SPRD
 Delta: O_D=  0.8673617E-17 O_OD= -0.4440892E-15 O_TOT=  0.0000000E+00 <-- DLTA
 ------------------------------------------------------------------------------
 Cycle:    281
  WF centre and spread    1  (  0.404642,  0.404642,  0.404642 )     1.58353482
  WF centre and spread    2  (  0.404642, -0.404642, -0.404642 )     1.58353482
  WF centre and spread    3  ( -0.404642,  0.404642, -0.404642 )     1.58353482
  WF centre and spread    4  ( -0.404642, -0.404642,  0.404642 )     1.58353483
  Sum of centres and spreads ( -0.000000,  0.000000, -0.000000 )     6.33413928
 
    281     0.178E-14     0.0000000022        6.3341393236       0.12  <-- CONV
        O_D=      0.0074516 O_OD=      1.4112869 O_TOT=      6.3341393 <-- SPRD
 Delta: O_D=  0.1214306E-16 O_OD=  0.1332268E-14 O_TOT=  0.1776357E-14 <-- DLTA
 ------------------------------------------------------------------------------
 Cycle:    282
  WF centre and spread    1  (  0.404642,  0.404642,  0.404642 )     1.58353482
  WF centre and spread    2  (  0.404642, -0.404642, -0.404642 )     1.58353482
  WF centre and spread    3  ( -0.404642,  0.404642, -0.404642 )     1.58353482
  WF centre and spread    4  ( -0.404642, -0.404642,  0.404642 )     1.58353483
  Sum of centres and spreads ( -0.000000,  0.000000, -0.000000 )     6.33413928
 
    282     0.178E-14     0.0000000022        6.3341393236       0.12  <-- CONV
        O_D=      0.0074516 O_OD=      1.4112869 O_TOT=      6.3341393 <-- SPRD
 Delta: O_D=  0.3382711E-16 O_OD=  0.1998401E-14 O_TOT=  0.1776357E-14 <-- DLTA
 ------------------------------------------------------------------------------
 Cycle:    283
  WF centre and spread    1  (  0.404642,  0.404642,  0.404642 )     1.58353482
  WF centre and spread    2  (  0.404642, -0.404642, -0.404642 )     1.58353482
  WF centre and spread    3  ( -0.404642,  0.404642, -0.404642 )     1.58353482
  WF centre and spread    4  ( -0.404642, -0.404642,  0.404642 )     1.58353483
  Sum of centres and spreads ( -0.000000,  0.000000, -0.000000 )     6.33413928
 
    283     0.888E-15     0.0000000022        6.3341393236       0.12  <-- CONV
        O_D=      0.0074516 O_OD=      1.4112869 O_TOT=      6.3341393 <-- SPRD
 Delta: O_D=  0.2197175E-12 O_OD= -0.2187139E-12 O_TOT=  0.8881784E-15 <-- DLTA
 ------------------------------------------------------------------------------
 Cycle:    284
  WF centre and spread    1  (  0.404642,  0.404642,  0.404642 )     1.58353482
  WF centre and spread    2  (  0.404642, -0.404642, -0.404642 )     1.58353482
  WF centre and spread    3  ( -0.404642,  0.404642, -0.404642 )     1.58353482
  WF centre and spread    4  ( -0.404642, -0.404642,  0.404642 )     1.58353483
  Sum of centres and spreads ( -0.000000,  0.000000, -0.000000 )     6.33413928
 
    284    -0.888E-15     0.0000000022        6.3341393236       0.12  <-- CONV
        O_D=      0.0074516 O_OD=      1.4112869 O_TOT=      6.3341393 <-- SPRD
 Delta: O_D=  0.2125990E-12 O_OD= -0.2133849E-12 O_TOT= -0.8881784E-15 <-- DLTA
 ------------------------------------------------------------------------------
 Cycle:    285
  WF centre and spread    1  (  0.404642,  0.404642,  0.404642 )     1.58353482
  WF centre and spread    2  (  0.404642, -0.404642, -0.404642 )     1.58353482
  WF centre and spread    3  ( -0.404642,  0.404642, -0.404642 )     1.58353482
  WF centre and spread    4  ( -0.404642, -0.404642,  0.404642 )     1.58353483
  Sum of centres and spreads ( -0.000000,  0.000000, -0.000000 )     6.33413928
 
    285    -0.888E-15     0.0000000021        6.3341393236       0.12  <-- CONV
        O_D=      0.0074516 O_OD=      1.4112869 O_TOT=      6.3341393 <-- SPRD
 Delta: O_D=  0.2057078E-12 O_OD= -0.2065015E-12 O_TOT= -0.8881784E-15 <-- DLTA
 ------------------------------------------------------------------------------
 Cycle:    286
  WF centre and spread    1  (  0.404642,  0.404642,  0.404642 )     1.58353482
  WF centre and spread    2  (  0.404642, -0.404642, -0.404642 )     1.58353482
  WF centre and spread    3  ( -0.404642,  0.404642, -0.404642 )     1.58353482
  WF centre and spread    4  ( -0.404642, -0.404642,  0.404642 )     1.58353483
  Sum of centres and spreads ( -0.000000,  0.000000, -0.000000 )     6.33413928
 
    286     0.000E+00     0.0000000021        6.3341393236       0.12  <-- CONV
        O_D=      0.0074516 O_OD=      1.4112869 O_TOT=      6.3341393 <-- SPRD
 Delta: O_D=  0.1990335E-12 O_OD= -0.1993961E-12 O_TOT=  0.0000000E+00 <-- DLTA
 ------------------------------------------------------------------------------
 Cycle:    287
  WF centre and spread    1  (  0.404642,  0.404642,  0.404642 )     1.58353482
  WF centre and spread    2  (  0.404642, -0.404642, -0.404642 )     1.58353482
  WF centre and spread    3  ( -0.404642,  0.404642, -0.404642 )     1.58353482
  WF centre and spread    4  ( -0.404642, -0.404642,  0.404642 )     1.58353483
  Sum of centres and spreads ( -0.000000,  0.000000, -0.000000 )     6.33413928
 
    287    -0.888E-15     0.0000000021        6.3341393236       0.12  <-- CONV
        O_D=      0.0074516 O_OD=      1.4112869 O_TOT=      6.3341393 <-- SPRD
 Delta: O_D=  0.1925977E-12 O_OD= -0.1938449E-12 O_TOT= -0.8881784E-15 <-- DLTA
 ------------------------------------------------------------------------------
 Cycle:    288
  WF centre and spread    1  (  0.404642,  0.404642,  0.404642 )     1.58353482
  WF centre and spread    2  (  0.404642, -0.404642, -0.404642 )     1.58353482
  WF centre and spread    3  ( -0.404642,  0.404642, -0.404642 )     1.58353482
  WF centre and spread    4  ( -0.404642, -0.404642,  0.404642 )     1.58353483
  Sum of centres and spreads ( -0.000000,  0.000000, -0.000000 )     6.33413928
 
    288     0.000E+00     0.0000000021        6.3341393236       0.12  <-- CONV
        O_D=      0.0074516 O_OD=      1.4112869 O_TOT=      6.3341393 <-- SPRD
 Delta: O_D=  0.1863501E-12 O_OD= -0.1860734E-12 O_TOT=  0.0000000E+00 <-- DLTA
 ------------------------------------------------------------------------------
 Cycle:    289
  WF centre and spread    1  (  0.404642,  0.404642,  0.404642 )     1.58353482
  WF centre and spread    2  (  0.404642, -0.404642, -0.404642 )     1.58353482
  WF centre and spread    3  ( -0.404642,  0.404642, -0.404642 )     1.58353482
  WF centre and spread    4  ( -0.404642, -0.404642,  0.404642 )     1.58353483
  Sum of centres and spreads ( -0.000000,  0.000000, -0.000000 )     6.33413928
 
    289    -0.178E-14     0.0000000021        6.3341393236       0.12  <-- CONV
        O_D=      0.0074516 O_OD=      1.4112869 O_TOT=      6.3341393 <-- SPRD
 Delta: O_D=  0.1803011E-12 O_OD= -0.1818545E-12 O_TOT= -0.1776357E-14 <-- DLTA
 ------------------------------------------------------------------------------
 Cycle:    290
  WF centre and spread    1  (  0.404642,  0.404642,  0.404642 )     1.58353482
  WF centre and spread    2  (  0.404642, -0.404642, -0.404642 )     1.58353482
  WF centre and spread    3  ( -0.404642,  0.404642, -0.404642 )     1.58353482
  WF centre and spread    4  ( -0.404642, -0.404642,  0.404642 )     1.58353483
  Sum of centres and spreads ( -0.000000,  0.000000, -0.000000 )     6.33413928
 
    290     0.888E-15     0.0000000021        6.3341393236       0.12  <-- CONV
        O_D=      0.0074516 O_OD=      1.4112869 O_TOT=      6.3341393 <-- SPRD
 Delta: O_D=  0.1821460E-16 O_OD=  0.4440892E-15 O_TOT=  0.8881784E-15 <-- DLTA
 ------------------------------------------------------------------------------
 Cycle:    291
  WF centre and spread    1  (  0.404642,  0.404642,  0.404642 )     1.58353482
  WF centre and spread    2  (  0.404642, -0.404642, -0.404642 )     1.58353482
  WF centre and spread    3  ( -0.404642,  0.404642, -0.404642 )     1.58353482
  WF centre and spread    4  ( -0.404642, -0.404642,  0.404642 )     1.58353483
  Sum of centres and spreads ( -0.000000,  0.000000, -0.000000 )     6.33413928
 
    291     0.000E+00     0.0000000021        6.3341393236       0.12  <-- CONV
        O_D=      0.0074516 O_OD=      1.4112869 O_TOT=      6.3341393 <-- SPRD
 Delta: O_D=  0.1647987E-16 O_OD=  0.0000000E+00 O_TOT=  0.0000000E+00 <-- DLTA
 ------------------------------------------------------------------------------
 Cycle:    292
  WF centre and spread    1  (  0.404642,  0.404642,  0.404642 )     1.58353482
  WF centre and spread    2  (  0.404642, -0.404642, -0.404642 )     1.58353482
  WF centre and spread    3  ( -0.404642,  0.404642, -0.404642 )     1.58353482
  WF centre and spread    4  ( -0.404642, -0.404642,  0.404642 )     1.58353483
  Sum of centres and spreads ( -0.000000,  0.000000, -0.000000 )     6.33413928
 
    292     0.000E+00     0.0000000021        6.3341393236       0.12  <-- CONV
        O_D=      0.0074516 O_OD=      1.4112869 O_TOT=      6.3341393 <-- SPRD
 Delta: O_D= -0.2602085E-17 O_OD=  0.0000000E+00 O_TOT=  0.0000000E+00 <-- DLTA
 ------------------------------------------------------------------------------
 Cycle:    293
  WF centre and spread    1  (  0.404642,  0.404642,  0.404642 )     1.58353482
  WF centre and spread    2  (  0.404642, -0.404642, -0.404642 )     1.58353482
  WF centre and spread    3  ( -0.404642,  0.404642, -0.404642 )     1.58353482
  WF centre and spread    4  ( -0.404642, -0.404642,  0.404642 )     1.58353483
  Sum of centres and spreads ( -0.000000,  0.000000, -0.000000 )     6.33413928
 
    293     0.888E-15     0.0000000021        6.3341393236       0.12  <-- CONV
        O_D=      0.0074516 O_OD=      1.4112869 O_TOT=      6.3341393 <-- SPRD
 Delta: O_D=  0.1127570E-16 O_OD=  0.6661338E-15 O_TOT=  0.8881784E-15 <-- DLTA
 ------------------------------------------------------------------------------
 Cycle:    294
  WF centre and spread    1  (  0.404642,  0.404642,  0.404642 )     1.58353482
  WF centre and spread    2  (  0.404642, -0.404642, -0.404642 )     1.58353482
  WF centre and spread    3  ( -0.404642,  0.404642, -0.404642 )     1.58353482
  WF centre and spread    4  ( -0.404642, -0.404642,  0.404642 )     1.58353483
  Sum of centres and spreads ( -0.000000,  0.000000, -0.000000 )     6.33413928
 
    294     0.000E+00     0.0000000021        6.3341393236       0.12  <-- CONV
        O_D=      0.0074516 O_OD=      1.4112869 O_TOT=      6.3341393 <-- SPRD
 Delta: O_D=  0.8673617E-17 O_OD=  0.0000000E+00 O_TOT=  0.0000000E+00 <-- DLTA
 ------------------------------------------------------------------------------
 Cycle:    295
  WF centre and spread    1  (  0.404642,  0.404642,  0.404642 )     1.58353482
  WF centre and spread    2  (  0.404642, -0.404642, -0.404642 )     1.58353482
  WF centre and spread    3  ( -0.404642,  0.404642, -0.404642 )     1.58353482
  WF centre and spread    4  ( -0.404642, -0.404642,  0.404642 )     1.58353483
  Sum of centres and spreads ( -0.000000,  0.000000, -0.000000 )     6.33413928
 
    295     0.000E+00     0.0000000021        6.3341393236       0.12  <-- CONV
        O_D=      0.0074516 O_OD=      1.4112869 O_TOT=      6.3341393 <-- SPRD
 Delta: O_D=  0.2775558E-16 O_OD=  0.4440892E-15 O_TOT=  0.0000000E+00 <-- DLTA
 ------------------------------------------------------------------------------
 Cycle:    296
  WF centre and spread    1  (  0.404642,  0.404642,  0.404642 )     1.58353482
  WF centre and spread    2  (  0.404642, -0.404642, -0.404642 )     1.58353482
  WF centre and spread    3  ( -0.404642,  0.404642, -0.404642 )     1.58353482
  WF centre and spread    4  ( -0.404642, -0.404642,  0.404642 )     1.58353483
  Sum of centres and spreads ( -0.000000,  0.000000, -0.000000 )     6.33413928
 
    296     0.000E+00     0.0000000021        6.3341393236       0.12  <-- CONV
        O_D=      0.0074516 O_OD=      1.4112869 O_TOT=      6.3341393 <-- SPRD
 Delta: O_D=  0.0000000E+00 O_OD= -0.4440892E-15 O_TOT=  0.0000000E+00 <-- DLTA
 ------------------------------------------------------------------------------
 Cycle:    297
  WF centre and spread    1  (  0.404642,  0.404642,  0.404642 )     1.58353482
  WF centre and spread    2  (  0.404642, -0.404642, -0.404642 )     1.58353482
  WF centre and spread    3  ( -0.404642,  0.404642, -0.404642 )     1.58353482
  WF centre and spread    4  ( -0.404642, -0.404642,  0.404642 )     1.58353483
  Sum of centres and spreads ( -0.000000,  0.000000, -0.000000 )     6.33413928
 
    297     0.000E+00     0.0000000021        6.3341393236       0.12  <-- CONV
        O_D=      0.0074516 O_OD=      1.4112869 O_TOT=      6.3341393 <-- SPRD
 Delta: O_D=  0.2602085E-17 O_OD=  0.2220446E-15 O_TOT=  0.0000000E+00 <-- DLTA
 ------------------------------------------------------------------------------
 Cycle:    298
  WF centre and spread    1  (  0.404642,  0.404642,  0.404642 )     1.58353482
  WF centre and spread    2  (  0.404642, -0.404642, -0.404642 )     1.58353482
  WF centre and spread    3  ( -0.404642,  0.404642, -0.404642 )     1.58353482
  WF centre and spread    4  ( -0.404642, -0.404642,  0.404642 )     1.58353483
  Sum of centres and spreads ( -0.000000,  0.000000, -0.000000 )     6.33413928
 
    298     0.000E+00     0.0000000021        6.3341393236       0.13  <-- CONV
        O_D=      0.0074516 O_OD=      1.4112869 O_TOT=      6.3341393 <-- SPRD
 Delta: O_D=  0.1561251E-16 O_OD=  0.0000000E+00 O_TOT=  0.0000000E+00 <-- DLTA
 ------------------------------------------------------------------------------
 Cycle:    299
  WF centre and spread    1  (  0.404642,  0.404642,  0.404642 )     1.58353482
  WF centre and spread    2  (  0.404642, -0.404642, -0.404642 )     1.58353482
  WF centre and spread    3  ( -0.404642,  0.404642, -0.404642 )     1.58353482
  WF centre and spread    4  ( -0.404642, -0.404642,  0.404642 )     1.58353483
  Sum of centres and spreads ( -0.000000,  0.000000, -0.000000 )     6.33413928
 
    299    -0.888E-15     0.0000000021        6.3341393236       0.13  <-- CONV
        O_D=      0.0074516 O_OD=      1.4112869 O_TOT=      6.3341393 <-- SPRD
 Delta: O_D= -0.8673617E-18 O_OD= -0.6661338E-15 O_TOT= -0.8881784E-15 <-- DLTA
 ------------------------------------------------------------------------------
 Cycle:    300
  WF centre and spread    1  (  0.404642,  0.404642,  0.404642 )     1.58353482
  WF centre and spread    2  (  0.404642, -0.404642, -0.404642 )     1.58353482
  WF centre and spread    3  ( -0.404642,  0.404642, -0.404642 )     1.58353482
  WF centre and spread    4  ( -0.404642, -0.404642,  0.404642 )     1.58353483
  Sum of centres and spreads ( -0.000000,  0.000000, -0.000000 )     6.33413928
 
    300     0.000E+00     0.0000000021        6.3341393236       0.13  <-- CONV
        O_D=      0.0074516 O_OD=      1.4112869 O_TOT=      6.3341393 <-- SPRD
 Delta: O_D=  0.1214306E-16 O_OD=  0.2220446E-15 O_TOT=  0.0000000E+00 <-- DLTA
 ------------------------------------------------------------------------------

 Writing checkpoint file pb.chk... done

 Final State
  WF centre and spread    1  (  0.404642,  0.404642,  0.404642 )     1.58353482
  WF centre and spread    2  (  0.404642, -0.404642, -0.404642 )     1.58353482
  WF centre and spread    3  ( -0.404642,  0.404642, -0.404642 )     1.58353482
  WF centre and spread    4  ( -0.404642, -0.404642,  0.404642 )     1.58353483
  Sum of centres and spreads ( -0.000000,  0.000000, -0.000000 )     6.33413928
 
         Spreads (Ang^2)       Omega I      =     4.915400808
        ================       Omega D      =     0.007451576
                               Omega OD     =     1.411286940
    Final Spread (Ang^2)       Omega Total  =     6.334139324
 ------------------------------------------------------------------------------

 Writing checkpoint file pb.chk... done

 Time for wannierise            0.106 (sec)
 *---------------------------------------------------------------------------*
 |                               PLOTTING                                    |
 *---------------------------------------------------------------------------*
 
 
 Calculating interpolated band-structure
 
 Time to calculate interpolated band structure       0.017 (sec)
 
 Time for plotting              0.022 (sec)
 Total Execution Time           0.138 (sec)

 *===========================================================================*
 |                             TIMING INFORMATION                            |
 *===========================================================================*
 |    Tag                                                Ncalls      Time (s)|
 |---------------------------------------------------------------------------|
 |kmesh: get                                        :         2         0.019|
 |kmesh: write                                      :         1         0.000|
 |overlap: allocate                                 :         1         0.000|
 |dis: main                                         :         1         0.001|
 |wann: main                                        :         1         0.106|
 |plot: main                                        :         1         0.022|
 *---------------------------------------------------------------------------*
 
 All done: wannier90 exiting
