unknown system                          
           1
     3.858720   -0.000000    0.000000
    -0.000000    3.858714    0.000000
     0.000000    0.000000    3.858717
   Ca   Ti   O 
   1   1   3
Direct configuration=     1
   0.50000000  0.50000000  0.50000000
   1.00000000  1.00000000  0.00000000
   0.00000001  0.50000000  1.00000000
   1.00000000  0.00000001  0.50000000
   0.50000000  1.00000000  1.00000000
Direct configuration=     2
   0.49999991  0.50000000  0.50000002
   0.00000005  1.00000000  0.99999999
   1.00000000  0.49999999  1.00000000
   0.99999997  0.00000001  0.49999999
   0.50000009  1.00000000  0.99999999
Direct configuration=     3
   0.49999983  0.50000001  0.50000004
   0.00000012  0.99999999  0.99999998
   0.99999999  0.49999999  1.00000000
   0.99999992  0.00000002  0.49999997
   0.50000017  0.99999999  0.99999999
Direct configuration=     4
   0.49999974  0.50000001  0.50000007
   0.00000018  0.99999999  0.99999997
   0.99999998  0.49999998  0.99999999
   0.99999987  0.00000004  0.49999995
   0.50000025  0.99999998  0.99999998
Direct configuration=     5
   0.49999965  0.50000002  0.50000009
   0.00000029  0.99999998  0.99999997
   0.99999998  0.49999998  0.99999999
   0.99999976  0.00000007  0.49999993
   0.50000028  0.99999996  0.99999996
Direct configuration=     6
   0.49999960  0.50000002  0.50000012
   0.00000035  0.99999998  0.99999996
   0.00000001  0.49999998  0.99999999
   0.99999964  0.00000011  0.49999991
   0.50000029  0.99999993  0.99999994
Direct configuration=     7
   0.49999955  0.50000002  0.50000014
   0.00000044  0.99999997  0.99999996
   0.00000002  0.49999998  1.00000000
   0.99999949  0.00000017  0.49999987
   0.50000029  0.99999988  0.99999992
Direct configuration=     8
   0.49999949  0.50000002  0.50000017
   0.00000066  0.99999996  0.99999997
   0.00000004  0.49999998  0.00000001
   0.99999913  0.00000029  0.49999982
   0.50000012  0.99999978  0.99999986
Direct configuration=     9
   0.49999944  0.50000002  0.50000020
   0.00000114  0.99999993  0.00000000
   0.00000007  0.50000001  0.00000004
   0.99999834  0.00000055  0.49999972
   0.49999959  0.99999957  0.99999975
Direct configuration=    10
   0.49999939  0.50000003  0.50000022
   0.00000220  0.99999987  0.00000010
   0.00000008  0.50000009  0.00000010
   0.99999659  0.00000111  0.49999954
   0.49999827  0.99999911  0.99999950
Direct configuration=    11
   0.49999937  0.50000003  0.50000026
   0.00000457  0.99999977  0.00000034
   0.99999971  0.50000024  0.00000019
   0.99999317  0.00000216  0.49999916
   0.49999502  0.99999820  0.99999898
Direct configuration=    12
   0.49999939  0.50000004  0.50000030
   0.00000989  0.99999952  0.00000090
   0.99999873  0.50000059  0.00000036
   0.99998553  0.00000441  0.49999834
   0.49998767  0.99999632  0.99999786
Direct configuration=    13
   0.49999950  0.50000004  0.50000035
   0.00002183  0.99999895  0.00000218
   0.99999593  0.50000139  0.00000061
   0.99996885  0.00000915  0.49999651
   0.49997113  0.99999248  0.99999548
Direct configuration=    14
   0.49999980  0.50000004  0.50000043
   0.00004869  0.99999768  0.00000508
   0.99998835  0.50000317  0.00000094
   0.99993258  0.00001901  0.49999242
   0.49993386  0.99998467  0.99999037
Direct configuration=    15
   0.50000056  0.50000001  0.50000055
   0.00010915  0.99999481  0.00001164
   0.99996854  0.50000716  0.00000115
   0.99985360  0.00003956  0.49998324
   0.49984985  0.99996878  0.99997940
Direct configuration=    16
   0.50000229  0.49999994  0.50000079
   0.00024510  0.99998838  0.00002641
   0.99991832  0.50001613  0.00000055
   0.99968164  0.00008230  0.49996263
   0.49966084  0.99993652  0.99995581
Direct configuration=    17
   0.50000635  0.49999975  0.50000128
   0.00055062  0.99997396  0.00005967
   0.99979292  0.50003622  0.99999689
   0.99930750  0.00017116  0.49991628
   0.49923592  0.99987117  0.99990507
Direct configuration=    18
   0.50001557  0.49999930  0.50000234
   0.00122859  0.99994236  0.00013356
   0.99948119  0.50008046  0.99998307
   0.99850991  0.00035283  0.49981331
   0.49829335  0.99974094  0.99979809
Direct configuration=    19
   0.50003524  0.49999820  0.50000462
   0.00264183  0.99987936  0.00028894
   0.99870620  0.50017033  0.99993429
   0.99696890  0.00069231  0.49959601
   0.49633095  0.99950288  0.99959347
Direct configuration=    20
   0.50007509  0.49999561  0.50000959
   0.00507647  0.99976782  0.00056903
   0.99714312  0.50033539  0.99980085
   0.99453680  0.00120742  0.49919709
   0.49294066  0.99916299  0.99927522
Direct configuration=    21
   0.50015043  0.49998995  0.50002000
   0.00867119  0.99957572  0.00102727
   0.99467236  0.50063049  0.99952100
   0.99110591  0.00191432  0.49852424
   0.48789639  0.99875004  0.99883056
Direct configuration=    22
   0.50028258  0.49997856  0.50004035
   0.01354143  0.99925580  0.00174230
   0.99119141  0.50113758  0.99900294
   0.98656972  0.00285343  0.49744060
   0.48100828  0.99828971  0.99824158
Direct configuration=    23
   0.50049642  0.49995845  0.50007530
   0.01968475  0.99878385  0.00274932
   0.98663626  0.50189640  0.99819654
   0.98086609  0.00404223  0.49588792
   0.47234753  0.99780478  0.99749960
Direct configuration=    24
   0.50082067  0.49992608  0.50013025
   0.02701918  0.99814436  0.00407010
   0.98096705  0.50292845  0.99706143
   0.97396539  0.00549635  0.49384000
   0.46215700  0.99731336  0.99659254
Direct configuration=    25
   0.50128632  0.49987740  0.50021127
   0.03536922  0.99732995  0.00571413
   0.97417751  0.50423828  0.99556351
   0.96587769  0.00722772  0.49130131
   0.45088035  0.99683120  0.99550647
Direct configuration=    26
   0.50192608  0.49980777  0.50032531
   0.04444657  0.99634030  0.00768126
   0.96629999  0.50581641  0.99367495
   0.95665506  0.00924363  0.48830197
   0.43921399  0.99637314  0.99422205
Direct configuration=    27
   0.50277385  0.49971190  0.50048034
   0.05382667  0.99518073  0.00996668
   0.95740390  0.50764316  0.99137532
   0.94638802  0.01154566  0.48489175
   0.42818361  0.99595449  0.99270445
Direct configuration=    28
   0.50386401  0.49958406  0.50068537
   0.06293320  0.99386051  0.01256814
   0.94758895  0.50969193  0.98865315
   0.93519555  0.01412935  0.48113461
   0.41920904  0.99559302  0.99088532
Direct configuration=    29
   0.50523075  0.49941840  0.50095029
   0.07107291  0.99238927  0.01549555
   0.93697154  0.51193415  0.98550658
   0.92320935  0.01698447  0.47710107
   0.41403105  0.99531334  0.98864157
Direct configuration=    30
   0.50690543  0.49920971  0.50128530
   0.07758602  0.99077360  0.01877382
   0.92567154  0.51434399  0.98194417
   0.91055866  0.02009588  0.47285970
   0.41429639  0.99514970  0.98579596
Direct configuration=    31
   0.50891355  0.49895453  0.50169963
   0.08209064  0.98901706  0.02242598
   0.91380726  0.51690231  0.97798753
   0.89736839  0.02344232  0.46846988
   0.42084077  0.99514058  0.98217551
Direct configuration=    32
   0.51127179  0.49865221  0.50220047
   0.08463463  0.98712417  0.02644394
   0.90150116  0.51959879  0.97367436
   0.88376577  0.02699518  0.46397637
   0.43322952  0.99531301  0.97770388
Direct configuration=    33
   0.51398687  0.49830571  0.50279230
   0.08560447  0.98510368  0.03077705
   0.88888462  0.52243142  0.96905932
   0.86988708  0.03071810  0.45940564
   0.45002156  0.99567167  0.97244035
Direct configuration=    34
   0.51705572  0.49792204  0.50347685
   0.08548392  0.98296674  0.03535217
   0.87609719  0.52540382  0.96421263
   0.85587762  0.03456785  0.45476397
   0.46949213  0.99620537  0.96652297
Direct configuration=    35
   0.52046486  0.49751221  0.50425250
   0.08466893  0.98072286  0.04010244
   0.86328117  0.52852152  0.95921766
   0.84188517  0.03849520  0.45003715
   0.49019997  0.99690171  0.96008667
Direct configuration=    36
   0.52418873  0.49709162  0.50511323
   0.08341472  0.97837908  0.04498093
   0.85057144  0.53178674  0.95416904
   0.82805059  0.04244339  0.44519255
   0.51116968  0.99775560  0.95322499
Direct configuration=    37
   0.52818761  0.49667986  0.50604753
   0.08186132  0.97594302  0.04995753
   0.83808811  0.53519331  0.94917065
   0.81450551  0.04634468  0.44018655
   0.53182993  0.99876907  0.94599659
Direct configuration=    38
   0.53240770  0.49629995  0.50703750
   0.08008405  0.97342558  0.05501000
   0.82594709  0.53872533  0.94433547
   0.80138160  0.05011799  0.43497589
   0.55184255  0.99994879  0.93844316
Direct configuration=    39
   0.53678393  0.49597739  0.50805849
   0.07813428  0.97083813  0.06012189
   0.81428260  0.54236191  0.93978711
   0.78881937  0.05367249  0.42952223
   0.57094205  0.00130863  0.93059038
Direct configuration=    40
   0.54124180  0.49574001  0.50907875
   0.07605857  0.96818623  0.06528770
   0.80325576  0.54608503  0.93566482
   0.77695756  0.05691252  0.42378716
   0.58887586  0.00287591  0.92243345
Direct configuration=    41
   0.54569905  0.49561794  0.51005999
   0.07390768  0.96546678  0.07051470
   0.79303996  0.54988871  0.93213143
   0.76591138  0.05973620  0.41772898
   0.60540953  0.00469226  0.91392533
Direct configuration=    42
   0.55006971  0.49564218  0.51095828
   0.07173978  0.96266835  0.07581963
   0.78378734  0.55378886  0.92938122
   0.75575888  0.06204076  0.41130720
   0.62035414  0.00680116  0.90497223
Direct configuration=    43
   0.55427148  0.49584173  0.51172607
   0.06961685  0.95977575  0.08122281
   0.77558293  0.55782667  0.92763385
   0.74653552  0.06374442  0.40448848
   0.63360983  0.00921592  0.89544608
Direct configuration=    44
   0.55823416  0.49623936  0.51231678
   0.06759677  0.95677851  0.08674018
   0.76842623  0.56205643  0.92709846
   0.73823346  0.06481374  0.39725042
   0.64518767  0.01189008  0.88522913
Direct configuration=    45
   0.56190604  0.49684887  0.51269324
   0.06572852  0.95367378  0.09237606
   0.76227087  0.56652796  0.92793131
   0.73080159  0.06526342  0.38957865
   0.65516804  0.01473301  0.87425970
Direct configuration=    46
   0.56525593  0.49767554  0.51283484
   0.06405062  0.95046254  0.09812073
   0.75707177  0.57127804  0.93021904
   0.72415032  0.06513865  0.38146543
   0.66364846  0.01764663  0.86253957
Direct configuration=    47
   0.56827121  0.49871768  0.51274031
   0.06259027  0.94714583  0.10395260
   0.75280013  0.57633227  0.93398154
   0.71816571  0.06450457  0.37291141
   0.67072193  0.02054129  0.85011602
Direct configuration=    48
   0.57095464  0.49996974  0.51242838
   0.06136554  0.94372254  0.10983799
   0.74944441  0.58169670  0.93918608
   0.71271118  0.06343779  0.36393752
   0.67647551  0.02335160  0.83705466
Direct configuration=    49
   0.57332019  0.50142326  0.51193440
   0.06038532  0.94018910  0.11573038
   0.74699840  0.58735436  0.94575691
   0.70763786  0.06203138  0.35459536
   0.68100275  0.02603328  0.82343040
Direct configuration=    50
   0.57538899  0.50306890  0.51130611
   0.05965071  0.93653977  0.12157015
   0.74545494  0.59325610  0.95358588
   0.70279284  0.06039953  0.34497615
   0.68440749  0.02856190  0.80931890
Direct configuration=    51
   0.57718524  0.50489754  0.51059906
   0.05915756  0.93276734  0.12728813
   0.74479997  0.59931330  0.96253845
   0.69802661  0.05867920  0.33520959
   0.68680505  0.03093351  0.79479291
Direct configuration=    52
   0.57873229  0.50690060  0.50987168
   0.05890008  0.92886432  0.13281255
   0.74500586  0.60539753  0.97245185
   0.69319909  0.05702682  0.32545429
   0.68832200  0.03316402  0.77992501
Direct configuration=    53
   0.58004941  0.50906998  0.50918122
   0.05887437  0.92482486  0.13807764
   0.74602726  0.61134638  0.98312999
   0.68818394  0.05561106  0.31588189
   0.68909349  0.03528502  0.76479298
Direct configuration=    54
   0.58114991  0.51139771  0.50858121
   0.05908067  0.92064686  0.14303058
   0.74780280  0.61697525  0.99434148
   0.68287122  0.05460315  0.30666116
   0.68925671  0.03733604  0.74948348
Direct configuration=    55
   0.58204055  0.51387609  0.50811985
   0.05952433  0.91633406  0.14763574
   0.75026196  0.62209113  0.00582438
   0.67716669  0.05416628  0.29794545
   0.68894346  0.03935503  0.73409101
Direct configuration=    56
   0.58272157  0.51649740  0.50783954
   0.06021606  0.91189786  0.15187717
   0.75333214  0.62650711  0.01729863
   0.67098969  0.05444415  0.28985626
   0.68827443  0.04137046  0.71871561
Direct configuration=    57
   0.58318695  0.51925331  0.50777653
   0.06117148  0.90735971  0.15575928
   0.75694183  0.63005542  0.02848290
   0.66427471  0.05555139  0.28246489
   0.68735492  0.04339213  0.70346335
Direct configuration=    58
   0.58342502  0.52213390  0.50796061
   0.06241049  0.90275334  0.15930661
   0.76101581  0.63259613  0.03911320
   0.65697771  0.05756762  0.27577493
   0.68627384  0.04540423  0.68844652
Direct configuration=    59
   0.58341957  0.52512688  0.50841481
   0.06395668  0.89812555  0.16256201
   0.76546383  0.63402201  0.04895945
   0.64908255  0.06052966  0.26971754
   0.68510766  0.04736793  0.67377816
Direct configuration=    60
   0.58315162  0.52821742  0.50915537
   0.06583547  0.89353353  0.16558585
   0.77016910  0.63426335  0.05783305
   0.64060191  0.06442286  0.26415934
   0.68393192  0.04923359  0.65955890
Direct configuration=    61
   0.58260086  0.53138917  0.51019220
   0.06806949  0.88904044  0.16845560
   0.77498881  0.63328815  0.06558320
   0.63156979  0.06917926  0.25891990
   0.68283864  0.05095311  0.64586335
Direct configuration=    62
   0.58174599  0.53462653  0.51153129
   0.07067336  0.88471410  0.17125375
   0.77976963  0.63108917  0.07209704
   0.62203250  0.07468226  0.25380448
   0.68194433  0.05248649  0.63273721
Direct configuration=    63
   0.58056585  0.53791687  0.51317747
   0.07364939  0.88062322  0.17404909
   0.78437040  0.62767556  0.07730451
   0.61204924  0.08077775  0.24863894
   0.68137717  0.05380468  0.62020672
Direct configuration=    64
   0.57904148  0.54124977  0.51513524
   0.07698405  0.87682796  0.17688974
   0.78868313  0.62308114  0.08117774
   0.60168994  0.08729294  0.24328765
   0.68126313  0.05489274  0.60828019
Direct configuration=    65
   0.57715797  0.54461568  0.51740862
   0.08064522  0.87337083  0.17980372
   0.79264919  0.61737463  0.08372844
   0.59103055  0.09405480  0.23766035
   0.68171835  0.05575166  0.59694216
Direct configuration=    66
   0.57490582  0.54800449  0.52000118
   0.08458180  0.87027205  0.18280101
   0.79626560  0.61066330  0.08500518
   0.58015060  0.10090302  0.23171441
   0.68284306  0.05639932  0.58614792
Direct configuration=    67
   0.57228224  0.55140445  0.52291574
   0.08872589  0.86752871  0.18587670
   0.79958004  0.60308868  0.08508912
   0.56913382  0.10769902  0.22545351
   0.68471593  0.05687091  0.57582029
Direct configuration=    68
   0.56929283  0.55480198  0.52615441
   0.09299762  0.86511670  0.18901405
   0.80267733  0.59481756  0.08408813
   0.55806885  0.11433114  0.21892074
   0.68738855  0.05721746  0.56585307
Direct configuration=    69
   0.56595305  0.55818143  0.52971830
   0.09731113  0.86299508  0.19218874
   0.80566187  0.58602944  0.08212927
   0.54704842  0.12071801  0.21218722
   0.69088199  0.05750258  0.55611809
Direct configuration=    70
   0.56228970  0.56152576  0.53360721
   0.10158036  0.86111055  0.19537239
   0.80864187  0.57690463  0.07935017
   0.53616610  0.12681059  0.20533852
   0.69518489  0.05779713  0.54647758
Direct configuration=    71
   0.55834175  0.56481753  0.53781898
   0.10572391  0.85940203  0.19853571
   0.81171780  0.56761449  0.07589101
   0.52551017  0.13259238  0.19846094
   0.70025444  0.05817275  0.53679812
Direct configuration=    72
   0.55415988  0.56803987  0.54234876
   0.10966864  0.85780449  0.20165068
   0.81497659  0.55831578  0.07188794
   0.51515586  0.13807804  0.19162976
   0.70602040  0.05869485  0.52696430
Direct configuration=    73
   0.54980449  0.57117764  0.54718768
   0.11335157  0.85625276  0.20469180
   0.81849068  0.54914573  0.06746879
   0.50515698  0.14331176  0.18490073
   0.71239373  0.05941502  0.51689104
Direct configuration=    74
   0.54534179  0.57421803  0.55232198
   0.11672093  0.85468522  0.20763571
   0.82232046  0.54021839  0.06275143
   0.49553414  0.14836624  0.17830345
   0.71928251  0.06036297  0.50653525
Direct configuration=    75
   0.54083862  0.57715066  0.55773221
   0.11973731  0.85304854  0.21046153
   0.82651713  0.53161930  0.05784197
   0.48626014  0.15334475  0.17183338
   0.72661318  0.06153544  0.49590657
Direct configuration=    76
   0.53635823  0.57996607  0.56339452
   0.12237783  0.85130274  0.21315216
   0.83112014  0.52340142  0.05282777
   0.47724826  0.15838108  0.16544718
   0.73434310  0.06288905  0.48507184
Direct configuration=    77
   0.53195831  0.58265377  0.56928378
   0.12464232  0.84942441  0.21569523
   0.83614560  0.51558536  0.04776895
   0.46836042  0.16363184  0.15907027
   0.74245029  0.06434288  0.47414562
Direct configuration=    78
   0.52769021  0.58520060  0.57537654
   0.12655709  0.84740657  0.21808187
   0.84157110  0.50816843  0.04269407
   0.45943072  0.16926253  0.15261525
   0.75091558  0.06578802  0.46327188
Direct configuration=    79
   0.52359762  0.58758985  0.58165275
   0.12817253  0.84525606  0.22030616
   0.84733098  0.50114526  0.03760076
   0.45028712  0.17542680  0.14600083
   0.75971651  0.06709757  0.45260231
Direct configuration=    80
   0.51971515  0.58980072  0.58809804
   0.12955641  0.84299151  0.22236780
   0.85332819  0.49452826  0.03245252
   0.44076269  0.18223830  0.13916645
   0.76882757  0.06814176  0.44227081
Direct configuration=    81
   0.51606726  0.59180812  0.59470661
   0.13078499  0.84064331  0.22427710
   0.85945578  0.48836325  0.02717551
   0.43070183  0.18973976  0.13207612
   0.77822183  0.06880404  0.43237093
Direct configuration=    82
   0.51267007  0.59358516  0.60148321
   0.13192882  0.83825007  0.22605530
   0.86562937  0.48273640  0.02166844
   0.41998161  0.19787789  0.12471855
   0.78785510  0.06900327  0.42293981
Direct configuration=    83
   0.50953372  0.59511082  0.60843933
   0.13303578  0.83584503  0.22771954
   0.87181616  0.47776143  0.01584782
   0.40856286  0.20651840  0.11710889
   0.79763063  0.06871322  0.41396561
Direct configuration=    84
   0.50666091  0.59637542  0.61558461
   0.13413456  0.83344585  0.22926510
   0.87801254  0.47354275  0.00968108
   0.39651180  0.21550679  0.10929195
   0.80739323  0.06795536  0.40542615
Direct configuration=    85
   0.50404575  0.59737879  0.62292326
   0.13524861  0.83105711  0.23066709
   0.88420785  0.47015913  0.00317113
   0.38396896  0.22470089  0.10133307
   0.81695763  0.06677989  0.39731714
Direct configuration=    86
   0.50167527  0.59812763  0.63045431
   0.13640385  0.82867254  0.23188816
   0.89037114  0.46766584  0.99633550
   0.37111677  0.23397453  0.09330740
   0.82612723  0.06525960  0.38966005
Direct configuration=    87
   0.49953202  0.59863470  0.63817162
   0.13763145  0.82627568  0.23288485
   0.89645384  0.46609900  0.98919447
   0.35815645  0.24321226  0.08529298
   0.83469984  0.06349117  0.38250202
Direct configuration=    88
   0.49759651  0.59891904  0.64606348
   0.13896788  0.82384208  0.23361234
   0.90239727  0.46547639  0.98176490
   0.34529070  0.25230311  0.07736883
   0.84247109  0.06159324  0.37591061
Direct configuration=    89
   0.49584927  0.59900669  0.65411161
   0.14045310  0.82134402  0.23402887
   0.90814289  0.46579430  0.97405480
   0.33270822  0.26113355  0.06961606
   0.84924005  0.05970077  0.36996744
Direct configuration=    90
   0.49427259  0.59893065  0.66229040
   0.14212558  0.81875831  0.23410088
   0.91364373  0.46702257  0.96605859
   0.32056994  0.26958205  0.06212006
   0.85482198  0.05795224  0.36475732
Direct configuration=    91
   0.49285188  0.59873010  0.67056518
   0.14401558  0.81607394  0.23380852
   0.91887278  0.46910098  0.95775667
   0.30899942  0.27751677  0.05497149
   0.85906629  0.05647441  0.36035538
Direct configuration=    92
   0.49157714  0.59844949  0.67888882
   0.14613748  0.81329780  0.23315035
   0.92382310  0.47194108  0.94912602
   0.29808249  0.28479660  0.04826510
   0.86187621  0.05536499  0.35681234
Direct configuration=    93
   0.49044439  0.59813827  0.68719877
   0.14848382  0.81045599  0.23214395
   0.92850115  0.47543475  0.94016081
   0.28787397  0.29127509  0.04209703
   0.86322264  0.05467653  0.35414189
Direct configuration=    94
   0.48945641  0.59785081  0.69541846
   0.15102361  0.80759251  0.23082244
   0.93292331  0.47946415  0.93088779
   0.27840359  0.29680493  0.03655966
   0.86314533  0.05440630  0.35231757
Direct configuration=    95
   0.48862201  0.59764470  0.70346265
   0.15370559  0.80476555  0.22922929
   0.93711940  0.48390652  0.92136974
   0.26967572  0.30124646  0.03173448
   0.86174133  0.05449836  0.35127865
Direct configuration=    96
   0.48795866  0.59757212  0.71124217
   0.15647062  0.80203079  0.22742503
   0.94115554  0.48861859  0.91170435
   0.26162559  0.30453735  0.02765915
   0.85914259  0.05486095  0.35093189
Direct configuration=    97
   0.48748975  0.59767292  0.71867500
   0.15925706  0.79943633  0.22548467
   0.94514977  0.49343675  0.90199956
   0.25410011  0.30671531  0.02431587
   0.85550999  0.05537627  0.35116819
Direct configuration=    98
   0.48723741  0.59797858  0.72569646
   0.16200006  0.79703077  0.22347751
   0.94923413  0.49820763  0.89235576
   0.24692937  0.30784275  0.02166235
   0.85102000  0.05591094  0.35188402
Direct configuration=    99
   0.48722389  0.59851174  0.73226114
   0.16463750  0.79485723  0.22146408
   0.95352595  0.50279704  0.88285731
   0.23995859  0.30799967  0.01963684
   0.84584031  0.05633344  0.35298949
Direct configuration=   100
   0.48747013  0.59928890  0.73833947
   0.16711197  0.79295149  0.21949573
   0.95810745  0.50709692  0.87356944
   0.23307523  0.30726680  0.01816915
   0.84012053  0.05652264  0.35440985
Direct configuration=   101
   0.48799538  0.60032295  0.74391483
   0.16937111  0.79134131  0.21761529
   0.96302087  0.51102418  0.86453865
   0.22621930  0.30571725  0.01718573
   0.83398683  0.05637327  0.35608573
Direct configuration=   102
   0.48881926  0.60162339  0.74898313
   0.17136807  0.79004489  0.21585858
   0.96827247  0.51451459  0.85579046
   0.21937662  0.30342198  0.01660730
   0.82753831  0.05580019  0.35797382
Direct configuration=   103
   0.48995982  0.60319812  0.75355305
   0.17306119  0.78907311  0.21425433
   0.97384656  0.51751304  0.84733273
   0.21256868  0.30044981  0.01634972
   0.82084853  0.05473748  0.36004278
Direct configuration=   104
   0.49143552  0.60505328  0.75764691
   0.17441468  0.78842839  0.21282576
   0.97971235  0.51996934  0.83915105
   0.20583879  0.29687452  0.01632278
   0.81396590  0.05313885  0.36227180
Direct configuration=   105
   0.49326291  0.60719636  0.76130066
   0.17539765  0.78810733  0.21159047
   0.98583380  0.52183370  0.83120996
   0.19924598  0.29276940  0.01643540
   0.80691831  0.05097223  0.36464467
Direct configuration=   106
   0.49545734  0.60963737  0.76456231
   0.17598361  0.78810028  0.21056319
   0.99216830  0.52306005  0.82344830
   0.19286040  0.28820496  0.01659851
   0.79971915  0.04821698  0.36714732
Direct configuration=   107
   0.49803264  0.61238888  0.76748661
   0.17615024  0.78839172  0.20975803
   0.99866217  0.52361383  0.81578250
   0.18676088  0.28324498  0.01673028
   0.79237535  0.04485886  0.36976581
Direct configuration=   108
   0.50100002  0.61546445  0.77012837
   0.17588003  0.78896097  0.20918959
   0.00524830  0.52347534  0.80811828
   0.18103099  0.27794860  0.01675799
   0.78489479  0.04088632  0.37248608
Direct configuration=   109
   0.50436670  0.61887546  0.77253580
   0.17516202  0.78978361  0.20887320
   0.01185399  0.52263208  0.80036496
   0.17574717  0.27237819  0.01662055
   0.77728845  0.03629410  0.37529334
Direct configuration=   110
   0.50813350  0.62263191  0.77475122
   0.17399042  0.79083386  0.20882263
   0.01841279  0.52107249  0.79243755
   0.17097665  0.26659271  0.01627393
   0.76957083  0.03108687  0.37816936
Direct configuration=   111
   0.51229385  0.62674242  0.77681272
   0.17236225  0.79208740  0.20904803
   0.02486952  0.51879086  0.78424906
   0.16678198  0.26063238  0.01570131
   0.76175989  0.02528128  0.38109214
Direct configuration=   112
   0.51683362  0.63121288  0.77875541
   0.17027607  0.79352439  0.20955426
   0.03118251  0.51579716  0.77570200
   0.16322516  0.25450212  0.01492306
   0.75387508  0.01890712  0.38403636
Direct configuration=   113
   0.52173178  0.63604404  0.78061202
   0.16773107  0.79513268  0.21033926
   0.03732555  0.51212815  0.76668335
   0.16036871  0.24815946  0.01400318
   0.74593512  0.01200454  0.38697520
Direct configuration=   114
   0.52696134  0.64122839  0.78241280
   0.16472579  0.79691120  0.21139235
   0.04329104  0.50785716  0.75706385
   0.15827464  0.24150530  0.01305441
   0.73795760  0.00462131  0.38988139
Direct configuration=   115
   0.53249191  0.64674749  0.78418499
   0.16125796  0.79886956  0.21269367
   0.04909219  0.50309689  0.74670764
   0.15699719  0.23439151  0.01223078
   0.72995800  0.99681032  0.39272789
Direct configuration=   116
   0.53829326  0.65257000  0.78595307
   0.15733329  0.80102065  0.21421479
   0.05475950  0.49800388  0.73548381
   0.15655743  0.22664286  0.01171884
   0.72194338  0.98863018  0.39548291
Direct configuration=   117
   0.54434073  0.65865454  0.78774244
   0.15298627  0.80335203  0.21592767
   0.06032373  0.49275986  0.72330793
   0.15689678  0.21815404  0.01167028
   0.71390009  0.98014534  0.39809942
Direct configuration=   118
   0.55060742  0.66494883  0.78957749
   0.14826464  0.80582654  0.21780634
   0.06581740  0.48755326  0.71016844
   0.15792186  0.20890721  0.01217514
   0.70581354  0.97142739  0.40051555
Direct configuration=   119
   0.55706050  0.67138825  0.79148027
   0.14321712  0.80838605  0.21982831
   0.07127487  0.48255883  0.69613522
   0.15953787  0.19897613  0.01325104
   0.69768061  0.96256364  0.40265589
Direct configuration=   120
   0.56366146  0.67789555  0.79347167
   0.13788857  0.81095343  0.22197720
   0.07672820  0.47792522  0.68134713
   0.16166372  0.18852489  0.01484505
   0.68951253  0.95366564  0.40443121
Direct configuration=   121
   0.57036798  0.68438318  0.79557361
   0.13231691  0.81343371  0.22424539
   0.08220502  0.47376803  0.66599036
   0.16423984  0.17780290  0.01684039
   0.68133378  0.94487188  0.40573996
Direct configuration=   122
   0.57713630  0.69075712  0.79781079
   0.12653088  0.81571577  0.22663692
   0.08772813  0.47016808  0.65027433
   0.16723366  0.16713489  0.01906502
   0.67317777  0.93634485  0.40647087
Direct configuration=   123
   0.58392402  0.69692192  0.80021014
   0.12054730  0.81767662  0.22916893
   0.09331652  0.46717220  0.63441094
   0.17064469  0.15690347  0.02130127
   0.66508183  0.92826226  0.40651091
Direct configuration=   124
   0.59069281  0.70278642  0.80279854
   0.11436870  0.81919068  0.23187053
   0.09898874  0.46479509  0.61859714
   0.17450713  0.14751745  0.02330077
   0.65708165  0.92080472  0.40575705
Direct configuration=   125
   0.59741091  0.70826942  0.80559812
   0.10798273  0.82014479  0.23477825
   0.10476588  0.46302263  0.60300173
   0.17888741  0.13936488  0.02480656
   0.64920622  0.91414036  0.40413272
Direct configuration=   126
   0.60405430  0.71330508  0.80862083
   0.10136622  0.82045849  0.23792672
   0.11067384  0.46181374  0.58775935
   0.18386894  0.13275112  0.02558445
   0.64147579  0.90841054  0.40160388
Direct configuration=   127
   0.61060631  0.71784667  0.81186317
   0.09449542  0.82010267  0.24133694
   0.11674052  0.46110407  0.57297106
   0.18952478  0.12783930  0.02545706
   0.63390218  0.90372070  0.39819283
Direct configuration=   128
   0.61705554  0.72186802  0.81530358
   0.08735942  0.81910826  0.24500664
   0.12298902  0.46081147  0.55871105
   0.19588719  0.12461728  0.02432716
   0.62649122  0.90013811  0.39398336
Direct configuration=   129
   0.62339317  0.72536308  0.81890341
   0.07997116  0.81756124  0.24890816
   0.12942903  0.46084251  0.54503395
   0.20292725  0.12290316  0.02218010
   0.61924555  0.89769598  0.38911511
Direct configuration=   130
   0.62961014  0.72834373  0.82261137
   0.07237118  0.81558632  0.25299627
   0.13605017  0.46109745  0.53197873
   0.21055439  0.12238796  0.01906024
   0.61216749  0.89640003  0.38376855
Direct configuration=   131
   0.63569498  0.73083718  0.82636952
   0.06462355  0.81332821  0.25722144
   0.14282034  0.46147213  0.51956522
   0.21863382  0.12269050  0.01503906
   0.60526088  0.89623444  0.37814571
Direct configuration=   132
   0.64163237  0.73288291  0.83011950
   0.05680737  0.81093622  0.26154259
   0.14969011  0.46185683  0.50778516
   0.22701179  0.12340771  0.01018976
   0.59853063  0.89716624  0.37245079
Direct configuration=   133
   0.64740225  0.73452777  0.83380747
   0.04900676  0.80855218  0.26593197
   0.15660373  0.46213761  0.49659623
   0.23553786  0.12415951  0.00458042
   0.59198146  0.89914771  0.36687596
Direct configuration=   134
   0.65297873  0.73581886  0.83738559
   0.04130396  0.80630112  0.27036904
   0.16351173  0.46219979  0.48593681
   0.24407521  0.12462855  0.99828166
   0.58561835  0.90211878  0.36159347
Direct configuration=   135
   0.65832996  0.73679755  0.84081225
   0.03377605  0.80428534  0.27483434
   0.17037713  0.46193673  0.47574623
   0.25250193  0.12458137  0.99136789
   0.57944937  0.90600975  0.35675204
Direct configuration=   136
   0.66341928  0.73749802  0.84405141
   0.02649381  0.80258347  0.27931040
   0.17717456  0.46125846  0.46597332
   0.26071091  0.12386472  0.98390968
   0.57348695  0.91074293  0.35247486
Direct configuration=   137
   0.66820714  0.73794804  0.84707311
   0.01952173  0.80125162  0.28378534
   0.18388525  0.46009970  0.45657278