
     Program PHONON v.7.3 starts on 21May2025 at 11: 7: 2 

     This program is part of the open-source Quantum ESPRESSO suite
     for quantum simulation of materials; please cite
         "P. Giannozzi et al., J. Phys.:Condens. Matter 21 395502 (2009);
         "P. Giannozzi et al., J. Phys.:Condens. Matter 29 465901 (2017);
         "P. Giannozzi et al., J. Chem. Phys. 152 154105 (2020);
          URL http://www.quantum-espresso.org", 
     in publications or presentations arising from this work. More details at
     http://www.quantum-espresso.org/quote

     Parallel version (MPI), running on    32 processors

     MPI processes distributed on     1 nodes
     245303 MiB available memory on the printing compute node when the environment starts
 
     Reading input from ph.in

     Reading xml data from directory:

     ./pb.save/
 
     K-points division:     npool     =       4
     R & G space division:  proc/nbgrp/npool/nimage =       8
     Subspace diagonalization in iterative solution of the eigenvalue problem:
     a serial algorithm will be used


     IMPORTANT: XC functional enforced from input :
     Exchange-correlation= PZ
                           (   1   1   0   0   0   0   0)
     Any further DFT definition will be discarded
     Please, verify this is what you really want

 
     Parallelization info
     --------------------
     sticks:   dense  smooth     PW     G-vecs:    dense   smooth      PW
     Min          45      45     15                  558      558     111
     Max          46      46     16                  560      560     114
     Sum         361     361    121                 4477     4477     893
 
     Using Slab Decomposition
 
     Reading collected, re-writing distributed wavefunctions in ./


     Dynamical matrices for ( 3, 3, 3)  uniform grid of q-points
     (   4 q-points):
       N         xq(1)         xq(2)         xq(3) 
       1   0.000000000   0.000000000   0.000000000
       2  -0.333333333   0.333333333  -0.333333333
       3   0.000000000   0.666666667   0.000000000
       4   0.666666667  -0.000000000   0.666666667

     Number and degeneracy of irreps per q-point
       N         xq(1)         xq(2)         xq(3)   N irreps
       1   0.000000000   0.000000000   0.000000000       1
        3
       2  -0.333333333   0.333333333  -0.333333333       2
        1   2
       3   0.000000000   0.666666667   0.000000000       2
        1   2
       4   0.666666667  -0.000000000   0.666666667       3
     No degeneracy

     Saving dvscf to file. Distribute only q points, not irreducible representations.

     Calculation of q =    0.0000000   0.0000000   0.0000000

     --                                                                         

     bravais-lattice index     =            2
     lattice parameter (alat)  =       9.2700  a.u.
     unit-cell volume          =     199.1495 (a.u.)^3
     number of atoms/cell      =            1
     number of atomic types    =            1
     kinetic-energy cut-off    =      30.0000  Ry
     charge density cut-off    =     120.0000  Ry
     convergence threshold     =      1.0E-17
     beta                      =       0.7000
     number of iterations used =            4
     Exchange-correlation= PZ
                           (   1   1   0   0   0   0   0)


     celldm(1)=    9.27000  celldm(2)=    0.00000  celldm(3)=    0.00000
     celldm(4)=    0.00000  celldm(5)=    0.00000  celldm(6)=    0.00000

     crystal axes: (cart. coord. in units of alat)
               a(1) = ( -0.5000  0.0000  0.5000 )  
               a(2) = (  0.0000  0.5000  0.5000 )  
               a(3) = ( -0.5000  0.5000  0.0000 )  

     reciprocal axes: (cart. coord. in units 2 pi/alat)
               b(1) = ( -1.0000 -1.0000  1.0000 )  
               b(2) = (  1.0000  1.0000  1.0000 )  
               b(3) = ( -1.0000  1.0000 -1.0000 )  


     Atoms inside the unit cell: 

     Cartesian axes

     site n.  atom      mass           positions (alat units)
        1  Pb    207.2000   tau(    1) = (    0.00000    0.00000    0.00000  )

     Computing dynamical matrix for 
                    q = (   0.0000000   0.0000000   0.0000000 )
 
     49 Sym.Ops. (with q -> -q+G )


     G cutoff =  261.2047  (    560 G-vectors)     FFT grid: ( 24, 24, 24)

     number of k points=    72  Methfessel-Paxton smearing, width (Ry)=  0.0250

     PseudoPot. # 1 for Pb read from file:
     ../pseudo/pb_s.UPF
     MD5 check sum: 7774f596943a2055f0d8d19eea6f2ae8
     Pseudo is Norm-conserving, Zval = 14.0
     Generated using "atomic" code by A. Dal Corso  (Quantum ESPRESSO distribution)
     Using radial grid of 1281 points,  2 beta functions with: 
                l(1) =   2
                l(2) =   1

     Mode symmetry, O_h (m-3m)  point group:


     Atomic displacements:
     There are    1 irreducible representations

     Representation     1      3 modes -  To be done



     Alpha used in Ewald sum =   1.2000
     PHONON       :      0.09s CPU      0.34s WALL



     Representation #   1 modes #   1   2   3

     Self-consistent Calculation
 
     Pert. #  1: Fermi energy shift (Ry) =    -8.6165E-27    -1.0971E-36
     Pert. #  2: Fermi energy shift (Ry) =    -1.9818E-25     3.2444E-36
     Pert. #  3: Fermi energy shift (Ry) =    -1.7233E-26     1.4733E-36

      iter #   1 total cpu time :     0.6 secs   av.it.:   8.7
      thresh= 1.000E-02 alpha_mix =  0.700 |ddv_scf|^2 =  1.380E-05
 
     Pert. #  1: Fermi energy shift (Ry) =    -2.4126E-25     3.1347E-38
     Pert. #  2: Fermi energy shift (Ry) =     3.4466E-26     0.0000E+00
     Pert. #  3: Fermi energy shift (Ry) =    -2.5849E-25     3.9183E-38

      iter #   2 total cpu time :     0.9 secs   av.it.:  12.8
      thresh= 3.715E-04 alpha_mix =  0.700 |ddv_scf|^2 =  3.898E-06
 
     Pert. #  1: Fermi energy shift (Ry) =     1.3786E-25    -1.5673E-38
     Pert. #  2: Fermi energy shift (Ry) =     5.1699E-26    -4.3101E-38
     Pert. #  3: Fermi energy shift (Ry) =    -4.5667E-25     3.9183E-38

      iter #   3 total cpu time :     1.2 secs   av.it.:  12.2
      thresh= 1.974E-04 alpha_mix =  0.700 |ddv_scf|^2 =  4.262E-10
 
     Pert. #  1: Fermi energy shift (Ry) =    -2.5849E-26    -2.1428E-40
     Pert. #  2: Fermi energy shift (Ry) =    -6.4623E-26     1.5306E-41
     Pert. #  3: Fermi energy shift (Ry) =     5.1699E-26    -1.3010E-40

      iter #   4 total cpu time :     1.5 secs   av.it.:  12.0
      thresh= 2.064E-06 alpha_mix =  0.700 |ddv_scf|^2 =  4.804E-12
 
     Pert. #  1: Fermi energy shift (Ry) =     2.5849E-26    -1.9132E-41
     Pert. #  2: Fermi energy shift (Ry) =     1.0771E-25     9.5662E-42
     Pert. #  3: Fermi energy shift (Ry) =     2.5849E-26     3.1568E-41

      iter #   5 total cpu time :     1.7 secs   av.it.:  10.6
      thresh= 2.192E-07 alpha_mix =  0.700 |ddv_scf|^2 =  2.223E-13
 
     Pert. #  1: Fermi energy shift (Ry) =     8.6165E-27     1.5306E-41
     Pert. #  2: Fermi energy shift (Ry) =     1.1632E-25    -1.1479E-41
     Pert. #  3: Fermi energy shift (Ry) =    -3.4466E-26     3.3482E-41

      iter #   6 total cpu time :     2.0 secs   av.it.:  11.9
      thresh= 4.715E-08 alpha_mix =  0.700 |ddv_scf|^2 =  2.367E-16
 
     Pert. #  1: Fermi energy shift (Ry) =     1.7233E-26     4.2091E-41
     Pert. #  2: Fermi energy shift (Ry) =     1.8095E-25    -4.3048E-42
     Pert. #  3: Fermi energy shift (Ry) =    -4.3082E-27    -1.8176E-41

      iter #   7 total cpu time :     2.3 secs   av.it.:  11.6
      thresh= 1.538E-09 alpha_mix =  0.700 |ddv_scf|^2 =  1.318E-18

     End of self-consistent calculation

     Convergence has been achieved 
 
     Number of q in the star =    1
     List of q in the star:
          1   0.000000000   0.000000000   0.000000000

     Diagonalizing the dynamical matrix

     q = (    0.000000000   0.000000000   0.000000000 ) 

 **************************************************************************
     freq (    1) =       0.057219 [THz] =       1.908606 [cm-1]
     freq (    2) =       0.057219 [THz] =       1.908606 [cm-1]
     freq (    3) =       0.057219 [THz] =       1.908606 [cm-1]
 **************************************************************************

     Mode symmetry, O_h (m-3m)  point group:

     freq (   1-   3) =          1.9  [cm-1]   --> T_1u G_15  G_4- I  

     Calculation of q =   -0.3333333   0.3333333  -0.3333333
 
     Parallelization info
     --------------------
     sticks:   dense  smooth     PW     G-vecs:    dense   smooth      PW
     Min          45      45     15                  558      558     120
     Max          46      46     16                  560      560     123
     Sum         361     361    127                 4477     4477     965
 
     Using Slab Decomposition
 

     Title: 
     --                                                                         


     bravais-lattice index     =            2
     lattice parameter (alat)  =       9.2700  a.u.
     unit-cell volume          =     199.1495 (a.u.)^3
     number of atoms/cell      =            1
     number of atomic types    =            1
     number of electrons       =        14.00
     number of Kohn-Sham states=           11
     kinetic-energy cutoff     =      30.0000  Ry
     charge density cutoff     =     120.0000  Ry
     Exchange-correlation= PZ
                           (   1   1   0   0   0   0   0)

     celldm(1)=   9.270000  celldm(2)=   0.000000  celldm(3)=   0.000000
     celldm(4)=   0.000000  celldm(5)=   0.000000  celldm(6)=   0.000000

     crystal axes: (cart. coord. in units of alat)
               a(1) = (  -0.500000   0.000000   0.500000 )  
               a(2) = (   0.000000   0.500000   0.500000 )  
               a(3) = (  -0.500000   0.500000   0.000000 )  

     reciprocal axes: (cart. coord. in units 2 pi/alat)
               b(1) = ( -1.000000 -1.000000  1.000000 )  
               b(2) = (  1.000000  1.000000  1.000000 )  
               b(3) = ( -1.000000  1.000000 -1.000000 )  


     PseudoPot. # 1 for Pb read from file:
     ../pseudo/pb_s.UPF
     MD5 check sum: 7774f596943a2055f0d8d19eea6f2ae8
     Pseudo is Norm-conserving, Zval = 14.0
     Generated using "atomic" code by A. Dal Corso  (Quantum ESPRESSO distribution)
     Using radial grid of 1281 points,  2 beta functions with: 
                l(1) =   2
                l(2) =   1

     atomic species   valence    mass     pseudopotential
     Pb               14.00   207.20000     Pb( 1.00)

     48 Sym. Ops., with inversion, found



   Cartesian axes

     site n.     atom                  positions (alat units)
         1        Pb     tau(   1) = (   0.0000000   0.0000000   0.0000000  )

     number of k points=   728  Methfessel-Paxton smearing, width (Ry)=  0.0250

     Number of k-points >= 100: set verbosity='high' to print them.

     Dense  grid:     4477 G-vectors     FFT dimensions: (  24,  24,  24)

     Estimated max dynamical RAM per process >       0.53 MB

     Estimated total dynamical RAM >      16.85 MB

     The potential is recalculated from file :
     ./_ph0/pb.q_2/pb.save/charge-density

     Starting wfcs are    9 atomic +    2 random wfcs

     Band Structure Calculation
     Davidson diagonalization with overlap

     ethr =  7.14E-11,  avg # of iterations = 15.6

     total cpu time spent up to now is        1.1 secs

     End of band structure calculation

     Number of k-points >= 100: set verbosity='high' to print the bands.

     the Fermi energy is    11.3919 ev

     Writing config to output data dir ./_ph0/pb.q_2/pb.save/ :
     XML data file

     --                                                                         

     bravais-lattice index     =            2
     lattice parameter (alat)  =       9.2700  a.u.
     unit-cell volume          =     199.1495 (a.u.)^3
     number of atoms/cell      =            1
     number of atomic types    =            1
     kinetic-energy cut-off    =      30.0000  Ry
     charge density cut-off    =     120.0000  Ry
     convergence threshold     =      1.0E-17
     beta                      =       0.7000
     number of iterations used =            4
     Exchange-correlation= PZ
                           (   1   1   0   0   0   0   0)


     celldm(1)=    9.27000  celldm(2)=    0.00000  celldm(3)=    0.00000
     celldm(4)=    0.00000  celldm(5)=    0.00000  celldm(6)=    0.00000

     crystal axes: (cart. coord. in units of alat)
               a(1) = ( -0.5000  0.0000  0.5000 )  
               a(2) = (  0.0000  0.5000  0.5000 )  
               a(3) = ( -0.5000  0.5000  0.0000 )  

     reciprocal axes: (cart. coord. in units 2 pi/alat)
               b(1) = ( -1.0000 -1.0000  1.0000 )  
               b(2) = (  1.0000  1.0000  1.0000 )  
               b(3) = ( -1.0000  1.0000 -1.0000 )  


     Atoms inside the unit cell: 

     Cartesian axes

     site n.  atom      mass           positions (alat units)
        1  Pb    207.2000   tau(    1) = (    0.00000    0.00000    0.00000  )

     Computing dynamical matrix for 
                    q = (  -0.3333333   0.3333333  -0.3333333 )
 
      6 Sym.Ops. (no q -> -q+G )


     G cutoff =  261.2047  (    560 G-vectors)     FFT grid: ( 24, 24, 24)

     number of k points=   728  Methfessel-Paxton smearing, width (Ry)=  0.0250

     PseudoPot. # 1 for Pb read from file:
     ../pseudo/pb_s.UPF
     MD5 check sum: 7774f596943a2055f0d8d19eea6f2ae8
     Pseudo is Norm-conserving, Zval = 14.0
     Generated using "atomic" code by A. Dal Corso  (Quantum ESPRESSO distribution)
     Using radial grid of 1281 points,  2 beta functions with: 
                l(1) =   2
                l(2) =   1

     Mode symmetry, C_3v (3m)   point group:


     Atomic displacements:
     There are    2 irreducible representations

     Representation     1      1 modes -  To be done

     Representation     2      2 modes -  To be done


     Message from routine init_vloc:
     Interpolation table for Vloc re-allocated

     Alpha used in Ewald sum =   1.2000
     PHONON       :      2.40s CPU      4.10s WALL



     Representation #   1 mode #   1

     Self-consistent Calculation

      iter #   1 total cpu time :     4.4 secs   av.it.:   9.5
      thresh= 1.000E-02 alpha_mix =  0.700 |ddv_scf|^2 =  1.714E-02

      iter #   2 total cpu time :     4.8 secs   av.it.:  10.6
      thresh= 1.000E-02 alpha_mix =  0.700 |ddv_scf|^2 =  3.025E-01

      iter #   3 total cpu time :     5.1 secs   av.it.:  10.1
      thresh= 1.000E-02 alpha_mix =  0.700 |ddv_scf|^2 =  1.170E-04

      iter #   4 total cpu time :     5.4 secs   av.it.:  10.4
      thresh= 1.082E-03 alpha_mix =  0.700 |ddv_scf|^2 =  8.793E-07

      iter #   5 total cpu time :     5.8 secs   av.it.:   9.9
      thresh= 9.377E-05 alpha_mix =  0.700 |ddv_scf|^2 =  5.005E-10

      iter #   6 total cpu time :     6.1 secs   av.it.:  11.3
      thresh= 2.237E-06 alpha_mix =  0.700 |ddv_scf|^2 =  1.267E-09

      iter #   7 total cpu time :     6.4 secs   av.it.:   8.5
      thresh= 3.559E-06 alpha_mix =  0.700 |ddv_scf|^2 =  9.401E-10

      iter #   8 total cpu time :     6.7 secs   av.it.:   8.8
      thresh= 3.066E-06 alpha_mix =  0.700 |ddv_scf|^2 =  6.145E-13

      iter #   9 total cpu time :     7.0 secs   av.it.:  10.8
      thresh= 7.839E-08 alpha_mix =  0.700 |ddv_scf|^2 =  5.026E-14

      iter #  10 total cpu time :     7.3 secs   av.it.:  10.0
      thresh= 2.242E-08 alpha_mix =  0.700 |ddv_scf|^2 =  5.969E-15

      iter #  11 total cpu time :     7.6 secs   av.it.:  10.0
      thresh= 7.726E-09 alpha_mix =  0.700 |ddv_scf|^2 =  1.128E-15

      iter #  12 total cpu time :     8.0 secs   av.it.:  10.2
      thresh= 3.359E-09 alpha_mix =  0.700 |ddv_scf|^2 =  2.152E-17

      iter #  13 total cpu time :     8.3 secs   av.it.:  10.5
      thresh= 4.639E-10 alpha_mix =  0.700 |ddv_scf|^2 =  1.223E-17

      iter #  14 total cpu time :     8.6 secs   av.it.:   9.4
      thresh= 3.497E-10 alpha_mix =  0.700 |ddv_scf|^2 =  7.601E-17

      iter #  15 total cpu time :     8.9 secs   av.it.:   8.1
      thresh= 8.718E-10 alpha_mix =  0.700 |ddv_scf|^2 =  2.529E-18

     End of self-consistent calculation

     Convergence has been achieved 


     Representation #   2 modes #   2   3

     Self-consistent Calculation

      iter #   1 total cpu time :     9.5 secs   av.it.:   8.7
      thresh= 1.000E-02 alpha_mix =  0.700 |ddv_scf|^2 =  3.550E-05

      iter #   2 total cpu time :    10.1 secs   av.it.:  12.2
      thresh= 5.958E-04 alpha_mix =  0.700 |ddv_scf|^2 =  1.117E-05

      iter #   3 total cpu time :    10.7 secs   av.it.:  11.6
      thresh= 3.342E-04 alpha_mix =  0.700 |ddv_scf|^2 =  9.031E-10

      iter #   4 total cpu time :    11.4 secs   av.it.:  11.6
      thresh= 3.005E-06 alpha_mix =  0.700 |ddv_scf|^2 =  1.438E-11

      iter #   5 total cpu time :    12.0 secs   av.it.:  10.5
      thresh= 3.792E-07 alpha_mix =  0.700 |ddv_scf|^2 =  5.723E-13

      iter #   6 total cpu time :    12.6 secs   av.it.:  11.4
      thresh= 7.565E-08 alpha_mix =  0.700 |ddv_scf|^2 =  7.399E-16

      iter #   7 total cpu time :    13.2 secs   av.it.:  11.7
      thresh= 2.720E-09 alpha_mix =  0.700 |ddv_scf|^2 =  5.603E-18

     End of self-consistent calculation

     Convergence has been achieved 
 
     Number of q in the star =    8
     List of q in the star:
          1  -0.333333333   0.333333333  -0.333333333
          2   0.333333333   0.333333333  -0.333333333
          3   0.333333333   0.333333333   0.333333333
          4  -0.333333333   0.333333333   0.333333333
          5   0.333333333  -0.333333333   0.333333333
          6  -0.333333333  -0.333333333  -0.333333333
          7   0.333333333  -0.333333333  -0.333333333
          8  -0.333333333  -0.333333333   0.333333333

     Diagonalizing the dynamical matrix

     q = (   -0.333333333   0.333333333  -0.333333333 ) 

 **************************************************************************
     freq (    1) =       0.677760 [THz] =      22.607631 [cm-1]
     freq (    2) =       0.677760 [THz] =      22.607631 [cm-1]
     freq (    3) =       1.628035 [THz] =      54.305399 [cm-1]
 **************************************************************************

     Mode symmetry, C_3v (3m)   point group:

     freq (   1-   2) =         22.6  [cm-1]   --> E    L_3           
     freq (   3-   3) =         54.3  [cm-1]   --> A_1  L_1           

     Calculation of q =    0.0000000   0.6666667   0.0000000
 
     Parallelization info
     --------------------
     sticks:   dense  smooth     PW     G-vecs:    dense   smooth      PW
     Min          45      45     15                  558      558     120
     Max          46      46     16                  560      560     123
     Sum         361     361    127                 4477     4477     965
 
     Using Slab Decomposition
 

     Title: 
     --                                                                         


     bravais-lattice index     =            2
     lattice parameter (alat)  =       9.2700  a.u.
     unit-cell volume          =     199.1495 (a.u.)^3
     number of atoms/cell      =            1
     number of atomic types    =            1
     number of electrons       =        14.00
     number of Kohn-Sham states=           11
     kinetic-energy cutoff     =      30.0000  Ry
     charge density cutoff     =     120.0000  Ry
     Exchange-correlation= PZ
                           (   1   1   0   0   0   0   0)

     celldm(1)=   9.270000  celldm(2)=   0.000000  celldm(3)=   0.000000
     celldm(4)=   0.000000  celldm(5)=   0.000000  celldm(6)=   0.000000

     crystal axes: (cart. coord. in units of alat)
               a(1) = (  -0.500000   0.000000   0.500000 )  
               a(2) = (   0.000000   0.500000   0.500000 )  
               a(3) = (  -0.500000   0.500000   0.000000 )  

     reciprocal axes: (cart. coord. in units 2 pi/alat)
               b(1) = ( -1.000000 -1.000000  1.000000 )  
               b(2) = (  1.000000  1.000000  1.000000 )  
               b(3) = ( -1.000000  1.000000 -1.000000 )  


     PseudoPot. # 1 for Pb read from file:
     ../pseudo/pb_s.UPF
     MD5 check sum: 7774f596943a2055f0d8d19eea6f2ae8
     Pseudo is Norm-conserving, Zval = 14.0
     Generated using "atomic" code by A. Dal Corso  (Quantum ESPRESSO distribution)
     Using radial grid of 1281 points,  2 beta functions with: 
                l(1) =   2
                l(2) =   1

     atomic species   valence    mass     pseudopotential
     Pb               14.00   207.20000     Pb( 1.00)

     48 Sym. Ops., with inversion, found



   Cartesian axes

     site n.     atom                  positions (alat units)
         1        Pb     tau(   1) = (   0.0000000   0.0000000   0.0000000  )

     number of k points=   588  Methfessel-Paxton smearing, width (Ry)=  0.0250

     Number of k-points >= 100: set verbosity='high' to print them.

     Dense  grid:     4477 G-vectors     FFT dimensions: (  24,  24,  24)

     Estimated max dynamical RAM per process >       0.53 MB

     Estimated total dynamical RAM >      16.87 MB

     The potential is recalculated from file :
     ./_ph0/pb.q_3/pb.save/charge-density

     Starting wfcs are    9 atomic +    2 random wfcs

     Band Structure Calculation
     Davidson diagonalization with overlap

     ethr =  7.14E-11,  avg # of iterations = 15.3

     total cpu time spent up to now is        2.3 secs

     End of band structure calculation

     Number of k-points >= 100: set verbosity='high' to print the bands.

     the Fermi energy is    11.3919 ev

     Writing config to output data dir ./_ph0/pb.q_3/pb.save/ :
     XML data file

     --                                                                         

     bravais-lattice index     =            2
     lattice parameter (alat)  =       9.2700  a.u.
     unit-cell volume          =     199.1495 (a.u.)^3
     number of atoms/cell      =            1
     number of atomic types    =            1
     kinetic-energy cut-off    =      30.0000  Ry
     charge density cut-off    =     120.0000  Ry
     convergence threshold     =      1.0E-17
     beta                      =       0.7000
     number of iterations used =            4
     Exchange-correlation= PZ
                           (   1   1   0   0   0   0   0)


     celldm(1)=    9.27000  celldm(2)=    0.00000  celldm(3)=    0.00000
     celldm(4)=    0.00000  celldm(5)=    0.00000  celldm(6)=    0.00000

     crystal axes: (cart. coord. in units of alat)
               a(1) = ( -0.5000  0.0000  0.5000 )  
               a(2) = (  0.0000  0.5000  0.5000 )  
               a(3) = ( -0.5000  0.5000  0.0000 )  

     reciprocal axes: (cart. coord. in units 2 pi/alat)
               b(1) = ( -1.0000 -1.0000  1.0000 )  
               b(2) = (  1.0000  1.0000  1.0000 )  
               b(3) = ( -1.0000  1.0000 -1.0000 )  


     Atoms inside the unit cell: 

     Cartesian axes

     site n.  atom      mass           positions (alat units)
        1  Pb    207.2000   tau(    1) = (    0.00000    0.00000    0.00000  )

     Computing dynamical matrix for 
                    q = (   0.0000000   0.6666667   0.0000000 )
 
      8 Sym.Ops. (no q -> -q+G )


     G cutoff =  261.2047  (    560 G-vectors)     FFT grid: ( 24, 24, 24)

     number of k points=   588  Methfessel-Paxton smearing, width (Ry)=  0.0250

     PseudoPot. # 1 for Pb read from file:
     ../pseudo/pb_s.UPF
     MD5 check sum: 7774f596943a2055f0d8d19eea6f2ae8
     Pseudo is Norm-conserving, Zval = 14.0
     Generated using "atomic" code by A. Dal Corso  (Quantum ESPRESSO distribution)
     Using radial grid of 1281 points,  2 beta functions with: 
                l(1) =   2
                l(2) =   1

     Mode symmetry, C_4v (4mm)  point group:


     Atomic displacements:
     There are    2 irreducible representations

     Representation     1      1 modes -  To be done

     Representation     2      2 modes -  To be done



     Alpha used in Ewald sum =   1.2000
     PHONON       :      9.95s CPU     14.99s WALL



     Representation #   1 mode #   1

     Self-consistent Calculation

      iter #   1 total cpu time :    15.2 secs   av.it.:   9.3
      thresh= 1.000E-02 alpha_mix =  0.700 |ddv_scf|^2 =  7.139E-03

      iter #   2 total cpu time :    15.5 secs   av.it.:  10.4
      thresh= 8.450E-03 alpha_mix =  0.700 |ddv_scf|^2 =  6.351E-02

      iter #   3 total cpu time :    15.8 secs   av.it.:   9.4
      thresh= 1.000E-02 alpha_mix =  0.700 |ddv_scf|^2 =  3.305E-05

      iter #   4 total cpu time :    16.1 secs   av.it.:  10.7
      thresh= 5.749E-04 alpha_mix =  0.700 |ddv_scf|^2 =  1.106E-07

      iter #   5 total cpu time :    16.4 secs   av.it.:  10.1
      thresh= 3.325E-05 alpha_mix =  0.700 |ddv_scf|^2 =  5.752E-10

      iter #   6 total cpu time :    16.7 secs   av.it.:  10.8
      thresh= 2.398E-06 alpha_mix =  0.700 |ddv_scf|^2 =  2.140E-10

      iter #   7 total cpu time :    16.9 secs   av.it.:   9.7
      thresh= 1.463E-06 alpha_mix =  0.700 |ddv_scf|^2 =  9.518E-14

      iter #   8 total cpu time :    17.2 secs   av.it.:  10.5
      thresh= 3.085E-08 alpha_mix =  0.700 |ddv_scf|^2 =  1.505E-14

      iter #   9 total cpu time :    17.5 secs   av.it.:   9.9
      thresh= 1.227E-08 alpha_mix =  0.700 |ddv_scf|^2 =  4.166E-15

      iter #  10 total cpu time :    17.8 secs   av.it.:   9.0
      thresh= 6.454E-09 alpha_mix =  0.700 |ddv_scf|^2 =  2.562E-15

      iter #  11 total cpu time :    18.0 secs   av.it.:   8.7
      thresh= 5.061E-09 alpha_mix =  0.700 |ddv_scf|^2 =  1.475E-17

      iter #  12 total cpu time :    18.3 secs   av.it.:  10.2
      thresh= 3.840E-10 alpha_mix =  0.700 |ddv_scf|^2 =  3.230E-19

     End of self-consistent calculation

     Convergence has been achieved 


     Representation #   2 modes #   2   3

     Self-consistent Calculation

      iter #   1 total cpu time :    18.8 secs   av.it.:   9.0
      thresh= 1.000E-02 alpha_mix =  0.700 |ddv_scf|^2 =  5.138E-05

      iter #   2 total cpu time :    19.4 secs   av.it.:  12.4
      thresh= 7.168E-04 alpha_mix =  0.700 |ddv_scf|^2 =  2.140E-05

      iter #   3 total cpu time :    19.9 secs   av.it.:  11.6
      thresh= 4.626E-04 alpha_mix =  0.700 |ddv_scf|^2 =  1.176E-09

      iter #   4 total cpu time :    20.4 secs   av.it.:  11.7
      thresh= 3.430E-06 alpha_mix =  0.700 |ddv_scf|^2 =  2.026E-11

      iter #   5 total cpu time :    20.9 secs   av.it.:  11.1
      thresh= 4.501E-07 alpha_mix =  0.700 |ddv_scf|^2 =  3.040E-13

      iter #   6 total cpu time :    21.4 secs   av.it.:  11.7
      thresh= 5.514E-08 alpha_mix =  0.700 |ddv_scf|^2 =  2.363E-15

      iter #   7 total cpu time :    21.9 secs   av.it.:  12.1
      thresh= 4.861E-09 alpha_mix =  0.700 |ddv_scf|^2 =  4.611E-17

      iter #   8 total cpu time :    22.5 secs   av.it.:  12.1
      thresh= 6.790E-10 alpha_mix =  0.700 |ddv_scf|^2 =  7.672E-18

     End of self-consistent calculation

     Convergence has been achieved 
 
     Number of q in the star =    6
     List of q in the star:
          1   0.000000000   0.666666667   0.000000000
          2  -0.666666667   0.000000000   0.000000000
          3   0.000000000  -0.666666667   0.000000000
          4   0.000000000   0.000000000   0.666666667
          5   0.000000000   0.000000000  -0.666666667
          6   0.666666667   0.000000000   0.000000000

     Diagonalizing the dynamical matrix

     q = (    0.000000000   0.666666667   0.000000000 ) 

 **************************************************************************
     freq (    1) =       0.799784 [THz] =      26.677913 [cm-1]
     freq (    2) =       0.799784 [THz] =      26.677913 [cm-1]
     freq (    3) =       1.979172 [THz] =      66.018070 [cm-1]
 **************************************************************************

     Mode symmetry, C_4v (4mm)  point group:

     freq (   1-   2) =         26.7  [cm-1]   --> E    G_5 D_5       
     freq (   3-   3) =         66.0  [cm-1]   --> A_1  G_1 D_1       

     Calculation of q =    0.6666667  -0.0000000   0.6666667
 
     Parallelization info
     --------------------
     sticks:   dense  smooth     PW     G-vecs:    dense   smooth      PW
     Min          45      45     18                  558      558     142
     Max          46      46     20                  560      560     143
     Sum         361     361    151                 4477     4477    1139
 
     Using Slab Decomposition
 

     Title: 
     --                                                                         


     bravais-lattice index     =            2
     lattice parameter (alat)  =       9.2700  a.u.
     unit-cell volume          =     199.1495 (a.u.)^3
     number of atoms/cell      =            1
     number of atomic types    =            1
     number of electrons       =        14.00
     number of Kohn-Sham states=           11
     kinetic-energy cutoff     =      30.0000  Ry
     charge density cutoff     =     120.0000  Ry
     Exchange-correlation= PZ
                           (   1   1   0   0   0   0   0)

     celldm(1)=   9.270000  celldm(2)=   0.000000  celldm(3)=   0.000000
     celldm(4)=   0.000000  celldm(5)=   0.000000  celldm(6)=   0.000000

     crystal axes: (cart. coord. in units of alat)
               a(1) = (  -0.500000   0.000000   0.500000 )  
               a(2) = (   0.000000   0.500000   0.500000 )  
               a(3) = (  -0.500000   0.500000   0.000000 )  

     reciprocal axes: (cart. coord. in units 2 pi/alat)
               b(1) = ( -1.000000 -1.000000  1.000000 )  
               b(2) = (  1.000000  1.000000  1.000000 )  
               b(3) = ( -1.000000  1.000000 -1.000000 )  


     PseudoPot. # 1 for Pb read from file:
     ../pseudo/pb_s.UPF
     MD5 check sum: 7774f596943a2055f0d8d19eea6f2ae8
     Pseudo is Norm-conserving, Zval = 14.0
     Generated using "atomic" code by A. Dal Corso  (Quantum ESPRESSO distribution)
     Using radial grid of 1281 points,  2 beta functions with: 
                l(1) =   2
                l(2) =   1

     atomic species   valence    mass     pseudopotential
     Pb               14.00   207.20000     Pb( 1.00)

     48 Sym. Ops., with inversion, found



   Cartesian axes

     site n.     atom                  positions (alat units)
         1        Pb     tau(   1) = (   0.0000000   0.0000000   0.0000000  )

     number of k points=  1020  Methfessel-Paxton smearing, width (Ry)=  0.0250

     Number of k-points >= 100: set verbosity='high' to print them.

     Dense  grid:     4477 G-vectors     FFT dimensions: (  24,  24,  24)

     Estimated max dynamical RAM per process >       0.53 MB

     Estimated total dynamical RAM >      16.94 MB

     The potential is recalculated from file :
     ./_ph0/pb.q_4/pb.save/charge-density

     Starting wfcs are    9 atomic +    2 random wfcs

     Band Structure Calculation
     Davidson diagonalization with overlap

     ethr =  7.14E-11,  avg # of iterations = 15.4

     total cpu time spent up to now is        4.1 secs

     End of band structure calculation

     Number of k-points >= 100: set verbosity='high' to print the bands.

     the Fermi energy is    11.3919 ev

     Writing config to output data dir ./_ph0/pb.q_4/pb.save/ :
     XML data file

     --                                                                         

     bravais-lattice index     =            2
     lattice parameter (alat)  =       9.2700  a.u.
     unit-cell volume          =     199.1495 (a.u.)^3
     number of atoms/cell      =            1
     number of atomic types    =            1
     kinetic-energy cut-off    =      30.0000  Ry
     charge density cut-off    =     120.0000  Ry
     convergence threshold     =      1.0E-17
     beta                      =       0.7000
     number of iterations used =            4
     Exchange-correlation= PZ
                           (   1   1   0   0   0   0   0)


     celldm(1)=    9.27000  celldm(2)=    0.00000  celldm(3)=    0.00000
     celldm(4)=    0.00000  celldm(5)=    0.00000  celldm(6)=    0.00000

     crystal axes: (cart. coord. in units of alat)
               a(1) = ( -0.5000  0.0000  0.5000 )  
               a(2) = (  0.0000  0.5000  0.5000 )  
               a(3) = ( -0.5000  0.5000  0.0000 )  

     reciprocal axes: (cart. coord. in units 2 pi/alat)
               b(1) = ( -1.0000 -1.0000  1.0000 )  
               b(2) = (  1.0000  1.0000  1.0000 )  
               b(3) = ( -1.0000  1.0000 -1.0000 )  


     Atoms inside the unit cell: 

     Cartesian axes

     site n.  atom      mass           positions (alat units)
        1  Pb    207.2000   tau(    1) = (    0.00000    0.00000    0.00000  )

     Computing dynamical matrix for 
                    q = (   0.6666667  -0.0000000   0.6666667 )
 
      4 Sym.Ops. (no q -> -q+G )


     G cutoff =  261.2047  (    560 G-vectors)     FFT grid: ( 24, 24, 24)

     number of k points=  1020  Methfessel-Paxton smearing, width (Ry)=  0.0250

     PseudoPot. # 1 for Pb read from file:
     ../pseudo/pb_s.UPF
     MD5 check sum: 7774f596943a2055f0d8d19eea6f2ae8
     Pseudo is Norm-conserving, Zval = 14.0
     Generated using "atomic" code by A. Dal Corso  (Quantum ESPRESSO distribution)
     Using radial grid of 1281 points,  2 beta functions with: 
                l(1) =   2
                l(2) =   1

     Mode symmetry, C_2v (mm2)  point group:


     Atomic displacements:
     There are    3 irreducible representations

     Representation     1      1 modes -  To be done

     Representation     2      1 modes -  To be done

     Representation     3      1 modes -  To be done



     Alpha used in Ewald sum =   1.2000
     PHONON       :     16.71s CPU     25.05s WALL



     Representation #   1 mode #   1

     Self-consistent Calculation

      iter #   1 total cpu time :    25.5 secs   av.it.:   9.2
      thresh= 1.000E-02 alpha_mix =  0.700 |ddv_scf|^2 =  1.134E-03

      iter #   2 total cpu time :    26.0 secs   av.it.:  10.9
      thresh= 3.368E-03 alpha_mix =  0.700 |ddv_scf|^2 =  1.993E-03

      iter #   3 total cpu time :    26.4 secs   av.it.:   9.7
      thresh= 4.464E-03 alpha_mix =  0.700 |ddv_scf|^2 =  8.838E-06

      iter #   4 total cpu time :    26.8 secs   av.it.:  10.1
      thresh= 2.973E-04 alpha_mix =  0.700 |ddv_scf|^2 =  1.147E-07

      iter #   5 total cpu time :    27.2 secs   av.it.:  10.2
      thresh= 3.387E-05 alpha_mix =  0.700 |ddv_scf|^2 =  3.189E-10

      iter #   6 total cpu time :    27.7 secs   av.it.:  10.9
      thresh= 1.786E-06 alpha_mix =  0.700 |ddv_scf|^2 =  1.702E-11

      iter #   7 total cpu time :    28.1 secs   av.it.:  10.2
      thresh= 4.126E-07 alpha_mix =  0.700 |ddv_scf|^2 =  1.615E-13

      iter #   8 total cpu time :    28.6 secs   av.it.:  10.7
      thresh= 4.018E-08 alpha_mix =  0.700 |ddv_scf|^2 =  3.278E-15

      iter #   9 total cpu time :    29.0 secs   av.it.:  11.1
      thresh= 5.725E-09 alpha_mix =  0.700 |ddv_scf|^2 =  4.621E-16

      iter #  10 total cpu time :    29.4 secs   av.it.:  10.7
      thresh= 2.150E-09 alpha_mix =  0.700 |ddv_scf|^2 =  5.187E-16

      iter #  11 total cpu time :    29.9 secs   av.it.:   9.8
      thresh= 2.278E-09 alpha_mix =  0.700 |ddv_scf|^2 =  9.579E-19

     End of self-consistent calculation

     Convergence has been achieved 


     Representation #   2 mode #   2

     Self-consistent Calculation

      iter #   1 total cpu time :    30.4 secs   av.it.:   8.8
      thresh= 1.000E-02 alpha_mix =  0.700 |ddv_scf|^2 =  1.839E-04

      iter #   2 total cpu time :    30.8 secs   av.it.:  11.2
      thresh= 1.356E-03 alpha_mix =  0.700 |ddv_scf|^2 =  7.054E-05

      iter #   3 total cpu time :    31.3 secs   av.it.:  10.6
      thresh= 8.399E-04 alpha_mix =  0.700 |ddv_scf|^2 =  3.753E-09

      iter #   4 total cpu time :    31.7 secs   av.it.:  10.8
      thresh= 6.126E-06 alpha_mix =  0.700 |ddv_scf|^2 =  7.979E-11

      iter #   5 total cpu time :    32.2 secs   av.it.:  10.1
      thresh= 8.933E-07 alpha_mix =  0.700 |ddv_scf|^2 =  1.935E-12

      iter #   6 total cpu time :    32.6 secs   av.it.:  10.4
      thresh= 1.391E-07 alpha_mix =  0.700 |ddv_scf|^2 =  6.753E-15

      iter #   7 total cpu time :    33.0 secs   av.it.:  10.9
      thresh= 8.218E-09 alpha_mix =  0.700 |ddv_scf|^2 =  1.804E-16

      iter #   8 total cpu time :    33.5 secs   av.it.:  10.6
      thresh= 1.343E-09 alpha_mix =  0.700 |ddv_scf|^2 =  1.159E-18

     End of self-consistent calculation

     Convergence has been achieved 


     Representation #   3 mode #   3

     Self-consistent Calculation

      iter #   1 total cpu time :    34.0 secs   av.it.:   9.1
      thresh= 1.000E-02 alpha_mix =  0.700 |ddv_scf|^2 =  6.832E-04

      iter #   2 total cpu time :    34.4 secs   av.it.:  11.1
      thresh= 2.614E-03 alpha_mix =  0.700 |ddv_scf|^2 =  7.022E-04

      iter #   3 total cpu time :    34.8 secs   av.it.:  10.0
      thresh= 2.650E-03 alpha_mix =  0.700 |ddv_scf|^2 =  1.565E-07

      iter #   4 total cpu time :    35.3 secs   av.it.:  10.8
      thresh= 3.956E-05 alpha_mix =  0.700 |ddv_scf|^2 =  4.991E-10

      iter #   5 total cpu time :    35.7 secs   av.it.:  10.6
      thresh= 2.234E-06 alpha_mix =  0.700 |ddv_scf|^2 =  1.369E-11

      iter #   6 total cpu time :    36.2 secs   av.it.:  10.0
      thresh= 3.700E-07 alpha_mix =  0.700 |ddv_scf|^2 =  5.954E-14

      iter #   7 total cpu time :    36.6 secs   av.it.:  11.0
      thresh= 2.440E-08 alpha_mix =  0.700 |ddv_scf|^2 =  4.848E-16

      iter #   8 total cpu time :    37.0 secs   av.it.:  10.6
      thresh= 2.202E-09 alpha_mix =  0.700 |ddv_scf|^2 =  1.331E-17

      iter #   9 total cpu time :    37.5 secs   av.it.:  10.9
      thresh= 3.648E-10 alpha_mix =  0.700 |ddv_scf|^2 =  1.661E-19

     End of self-consistent calculation

     Convergence has been achieved 
 
     Number of q in the star =   12
     List of q in the star:
          1   0.666666667   0.000000000   0.666666667
          2   0.666666667   0.000000000  -0.666666667
          3  -0.666666667   0.000000000  -0.666666667
          4  -0.666666667   0.000000000   0.666666667
          5   0.000000000  -0.666666667   0.666666667
          6  -0.666666667   0.666666667   0.000000000
          7  -0.666666667  -0.666666667   0.000000000
          8   0.666666667   0.666666667   0.000000000
          9   0.666666667  -0.666666667   0.000000000
         10   0.000000000   0.666666667   0.666666667
         11   0.000000000   0.666666667  -0.666666667
         12   0.000000000  -0.666666667  -0.666666667

     Diagonalizing the dynamical matrix

     q = (    0.666666667  -0.000000000   0.666666667 ) 

 **************************************************************************
     freq (    1) =       1.249594 [THz] =      41.681970 [cm-1]
     freq (    2) =       1.719106 [THz] =      57.343211 [cm-1]
     freq (    3) =       1.767733 [THz] =      58.965210 [cm-1]
 **************************************************************************

     Mode symmetry, C_2v (mm2)  point group:

     freq (   1-   1) =         41.7  [cm-1]   --> B_1  D_3  S_3      
     freq (   2-   2) =         57.3  [cm-1]   --> A_1  D_1  S_1      
     freq (   3-   3) =         59.0  [cm-1]   --> B_2  D_4  S_4      
 
     init_run     :      0.01s CPU      0.11s WALL (       3 calls)
     electrons    :      3.32s CPU      3.56s WALL (       3 calls)

     Called by init_run:
     wfcinit      :      0.00s CPU      0.09s WALL (       3 calls)
     potinit      :      0.00s CPU      0.00s WALL (       3 calls)
     hinit0       :      0.01s CPU      0.01s WALL (       3 calls)

     Called by electrons:
     c_bands      :      3.31s CPU      3.55s WALL (       3 calls)
     v_of_rho     :      0.00s CPU      0.00s WALL (       4 calls)

     Called by c_bands:
     init_us_2    :      0.06s CPU      0.07s WALL (    9882 calls)
     init_us_2:cp :      0.05s CPU      0.06s WALL (    9882 calls)
     cegterg      :      2.72s CPU      2.93s WALL (     630 calls)

     Called by *egterg:
     cdiaghg      :      1.23s CPU      1.31s WALL (    9950 calls)
     h_psi        :     14.19s CPU     16.33s WALL (  118973 calls)
     g_psi        :      0.01s CPU      0.01s WALL (    9364 calls)

     Called by h_psi:
     h_psi:calbec :      0.73s CPU      0.83s WALL (  118973 calls)
     vloc_psi     :     12.93s CPU     14.88s WALL (  118973 calls)
     add_vuspsi   :      0.21s CPU      0.25s WALL (  118973 calls)

     General routines
     calbec       :      1.02s CPU      1.19s WALL (  234226 calls)
     fft          :      0.01s CPU      0.01s WALL (     376 calls)
     ffts         :      0.02s CPU      0.02s WALL (    1075 calls)
     fftw         :     13.39s CPU     15.39s WALL ( 1680440 calls)
     davcio       :      0.11s CPU      0.16s WALL (   44269 calls)
 
     Parallel routines
 
     PHONON       :     25.88s CPU     37.98s WALL

     INITIALIZATION: 
     phq_setup    :      0.00s CPU      0.04s WALL (       4 calls)
     phq_init     :      0.03s CPU      0.07s WALL (       4 calls)
 
     phq_init     :      0.03s CPU      0.07s WALL (       4 calls)
     init_vloc    :      0.00s CPU      0.00s WALL (       4 calls)
     init_us_1    :      0.00s CPU      0.01s WALL (       4 calls)
     init_us_2    :      0.06s CPU      0.07s WALL (    9882 calls)
 
     DYNAMICAL MATRIX:
     dynmat0      :      0.02s CPU      0.06s WALL (       4 calls)
     dynmat_us    :      0.02s CPU      0.02s WALL (       4 calls)
     d2ionq       :      0.00s CPU      0.00s WALL (       4 calls)
     phqscf       :     22.37s CPU     31.43s WALL (       4 calls)
     dynmatrix    :      0.00s CPU      0.05s WALL (       4 calls)
 
     phqscf       :     22.37s CPU     31.43s WALL (       4 calls)
     solve_linter :     22.33s CPU     30.94s WALL (       8 calls)
     sth_kernel   :     20.19s CPU     23.05s WALL (      77 calls)
     h_prec       :      0.04s CPU      0.04s WALL (    7192 calls)
     apply_dpot_b :      1.12s CPU      1.30s WALL (    7740 calls)
     ortho        :      0.13s CPU      0.15s WALL (    8673 calls)
     cgsolve      :     15.16s CPU     17.55s WALL (    8673 calls)
     incdrhoscf   :      1.20s CPU      1.40s WALL (    8673 calls)
                                        0.00s GPU  (    8673 calls)
     dv_of_drho   :      0.01s CPU      0.01s WALL (     106 calls)
     mix_pot      :      0.10s CPU      1.85s WALL (      77 calls)
     ef_shift     :      0.00s CPU      0.00s WALL (       7 calls)
     ef_shift_wfc :      0.00s CPU      0.00s WALL (       1 calls)
     localdos     :      0.00s CPU      0.00s WALL (       1 calls)
     drhodv       :      0.03s CPU      0.04s WALL (       8 calls)
     psymdvscf    :      0.20s CPU      0.21s WALL (      77 calls)
 
     dvqpsi_us    :      0.23s CPU      0.26s WALL (     933 calls)
                                        0.00s GPU  (     933 calls)
     dvqpsi_us_on :      0.02s CPU      0.02s WALL (     933 calls)
 
     add_vuspsi   :      0.21s CPU      0.25s WALL (  118973 calls)
 
 
      General routines
     calbec       :      1.02s CPU      1.19s WALL (  234226 calls)
     fft          :      0.01s CPU      0.01s WALL (     376 calls)
     ffts         :      0.02s CPU      0.02s WALL (    1075 calls)
     fftw         :     13.39s CPU     15.39s WALL ( 1680440 calls)
     davcio       :      0.11s CPU      0.16s WALL (   44269 calls)
     write_rec    :      0.02s CPU      4.39s WALL (      85 calls)
 
      Additional routines
     ch_psi       :     14.56s CPU     16.85s WALL (  108393 calls)
     last         :      1.38s CPU      1.60s WALL (  108393 calls)
     Hesh         :      0.06s CPU      0.07s WALL (  108393 calls)
     ch_psi_all_k :      1.18s CPU      1.37s WALL (  108393 calls)
                                        0.00s GPU  (  108393 calls)
     ch_psi_calbe :      0.45s CPU      0.51s WALL (  108393 calls)
                                        0.00s GPU  (  108393 calls)
     h_psi_bgrp   :     14.28s CPU     16.43s WALL (  118973 calls)
     h_psi        :     14.19s CPU     16.33s WALL (  118973 calls)
     h_psi:pot    :     14.06s CPU     16.18s WALL (  118973 calls)
     h_psi:calbec :      0.73s CPU      0.83s WALL (  118973 calls)
     s_psi_bgrp   :      0.11s CPU      0.13s WALL (  225459 calls)
 
 
     PHONON       :     25.88s CPU     37.98s WALL

 
   This run was terminated on:  11: 7:40  21May2025            

=------------------------------------------------------------------------------=
   JOB DONE.
=------------------------------------------------------------------------------=
